Al    ONCVPSP-3.3.1  r_core=   1.31212   2.41091
     13.0000     11.0000      210904    zatom,zion,pspd
     8      11   1     4   600     0    pspcod,pspxc,lmax,lloc,mmax,r2well
  5.99000000  0.00000000  0.00000000    rchrg fchrg qchrg
     2     2     0     0    nproj
     3     1           extension_switch
     3     0     0    nprojso
   0                        -3.9874091738251D-01  2.8668725360556D+00
     1  0.0000000000000D+00  2.5909879519670D-09  1.9195405265293D-09
     2  1.0000000000000D-02  1.9802596301599D-02  1.1868780402612D-01
     3  2.0000000000000D-02  3.9790003838133D-02  2.3686430858597D-01
     4  3.0000000000000D-02  6.0144133212184D-02  3.5401966549256D-01
     5  4.0000000000000D-02  8.1041137233688D-02  4.6964694476647D-01
     6  5.0000000000000D-02  1.0264864003016D-01  5.8324363235788D-01
     7  6.0000000000000D-02  1.2512309388911D-01  6.9431317280993D-01
     8  7.0000000000000D-02  1.4860730331520D-01  8.0236656953711D-01
     9  8.0000000000000D-02  1.7322815319360D-01  9.0692405347377D-01
    10  9.0000000000000D-02  1.9909457478869D-01  1.0075168285180D+00
    11  1.0000000000000D-01  2.2629577962235D-01  1.1036888995036D+00
    12  1.1000000000000D-01  2.5489978712613D-01  1.1949989854270D+00
    13  1.2000000000000D-01  2.8495226741126D-01  1.2810225173992D+00
    14  1.3000000000000D-01  3.1647571562056D-01  1.3613537173480D+00
    15  1.4000000000000D-01  3.4946896919317D-01  1.4356077499297D+00
    16  1.5000000000000D-01  3.8390707406718D-01  1.5034229365015D+00
    17  1.6000000000000D-01  4.1974150044914D-01  1.5644630164239D+00
    18  1.7000000000000D-01  4.5690070337933D-01  1.6184194374811D+00
    19  1.8000000000000D-01  4.9529101800072D-01  1.6650136539125D+00
    20  1.9000000000000D-01  5.3479787428407D-01  1.7039994074948D+00
    21  2.0000000000000D-01  5.7528731105100D-01  1.7351649643930D+00
    22  2.1000000000000D-01  6.1660776455109D-01  1.7583352781528D+00
    23  2.2000000000000D-01  6.5859210266034D-01  1.7733740473191D+00
    24  2.3000000000000D-01  7.0105987204361D-01  1.7801856347694D+00
    25  2.4000000000000D-01  7.4381972242342D-01  1.7787168150038D+00
    26  2.5000000000000D-01  7.8667196947340D-01  1.7689583153699D+00
    27  2.6000000000000D-01  8.2941125584865D-01  1.7509461175425D+00
    28  2.7000000000000D-01  8.7182926851156D-01  1.7247624865518D+00
    29  2.8000000000000D-01  9.1371746983116D-01  1.6905366962520D+00
    30  2.9000000000000D-01  9.5486979994034D-01  1.6484454223595D+00
    31  3.0000000000000D-01  9.9508530852699D-01  1.5987127770268D+00
    32  3.1000000000000D-01  1.0341706756036D+00  1.5416099623480D+00
    33  3.2000000000000D-01  1.0719425828219D+00  1.4774545241674D+00
    34  3.3000000000000D-01  1.1082298995430D+00  1.4066091920295D+00
    35  3.4000000000000D-01  1.1428756510972D+00  1.3294802960262D+00
    36  3.5000000000000D-01  1.1757387404170D+00  1.2465157565733D+00
    37  3.6000000000000D-01  1.2066953984410D+00  1.1582026487322D+00
    38  3.7000000000000D-01  1.2356403432965D+00  1.0650643484797D+00
    39  3.8000000000000D-01  1.2624876331998D+00  9.6765727424488D-01
    40  3.9000000000000D-01  1.2871712031765D+00  8.6656724297859D-01
    41  4.0000000000000D-01  1.3096450810246D+00  7.6240546589757D-01
    42  4.1000000000000D-01  1.3298832833205D+00  6.5580421476388D-01
    43  4.2000000000000D-01  1.3478793976191D+00  5.4741219501444D-01
    44  4.3000000000000D-01  1.3636458622293D+00  4.3788966715567D-01
    45  4.4000000000000D-01  1.3772129599686D+00  3.2790336249029D-01
    46  4.5000000000000D-01  1.3886275470287D+00  2.1812124336169D-01
    47  4.6000000000000D-01  1.3979515424389D+00  1.0920716160652D-01
    48  4.7000000000000D-01  1.4052602075149D+00  1.8154717269276D-03
    49  4.8000000000000D-01  1.4106402480711D+00 -1.0341434263031D-01
    50  4.9000000000000D-01  1.4141877749845D+00 -2.0586296902075D-01
    51  5.0000000000000D-01  1.4160061608851D+00 -3.0493643306125D-01
    52  5.1000000000000D-01  1.4162038322761D+00 -4.0007107189838D-01
    53  5.2000000000000D-01  1.4148920372222D+00 -4.9073825566507D-01
    54  5.3000000000000D-01  1.4121826288805D+00 -5.7644880045012D-01
    55  5.4000000000000D-01  1.4081859045796D+00 -6.5675701930025D-01
    56  5.5000000000000D-01  1.4030085388859D+00 -7.3126436159026D-01
    57  5.6000000000000D-01  1.3967516471680D+00 -7.9962259566950D-01
    58  5.7000000000000D-01  1.3895090135928D+00 -8.6153649499975D-01
    59  5.8000000000000D-01  1.3813655143359D+00 -9.1676599391268D-01
    60  5.9000000000000D-01  1.3723957630924D+00 -9.6512778561974D-01
    61  6.0000000000000D-01  1.3626630018295D+00 -1.0064963420253D+00
    62  6.1000000000000D-01  1.3522182551671D+00 -1.0408043422250D+00
    63  6.2000000000000D-01  1.3410997619477D+00 -1.0680425040719D+00
    64  6.3000000000000D-01  1.3293326924734D+00 -1.0882588209055D+00
    65  6.4000000000000D-01  1.3169291547216D+00 -1.1015572131818D+00
    66  6.5000000000000D-01  1.3038884876412D+00 -1.1080956123147D+00
    67  6.6000000000000D-01  1.2901978344814D+00 -1.1080835013738D+00
    68  6.7000000000000D-01  1.2758329841497D+00 -1.1017789442361D+00
    69  6.8000000000000D-01  1.2607594638814D+00 -1.0894851412964D+00
    70  6.9000000000000D-01  1.2449338621295D+00 -1.0715465557757D+00
    71  7.0000000000000D-01  1.2283053566593D+00 -1.0483446599084D+00
    72  7.1000000000000D-01  1.2108174194043D+00 -1.0202933547809D+00
    73  7.2000000000000D-01  1.1924096667690D+00 -9.8783412125388D-01
    74  7.3000000000000D-01  1.1730198218321D+00 -9.5143096215737D-01
    75  7.4000000000000D-01  1.1525857533268D+00 -9.1156519775916D-01
    76  7.5000000000000D-01  1.1310475553965D+00 -8.6873017734883D-01
    77  7.6000000000000D-01  1.1083496319602D+00 -8.2342596962706D-01
    78  7.7000000000000D-01  1.0844427500618D+00 -7.7615409346640D-01
    79  7.8000000000000D-01  1.0592860278380D+00 -7.2741234850121D-01
    80  7.9000000000000D-01  1.0328488246652D+00 -6.7768980198382D-01
    81  8.0000000000000D-01  1.0051125036247D+00 -6.2746198444307D-01
    82  8.1000000000000D-01  9.7607203959058D-01 -5.7718634197418D-01
    83  8.2000000000000D-01  9.4573744994442D-01 -5.2729798755944D-01
    84  8.3000000000000D-01  9.1413502908026D-01 -4.7820578776112D-01
    85  8.4000000000000D-01  8.8130837239937D-01 -4.3028881454886D-01
    86  8.5000000000000D-01  8.4731918032168D-01 -3.8389318503938D-01
    87  8.6000000000000D-01  8.1224783786309D-01 -3.3932930465828D-01
    88  8.7000000000000D-01  7.7619377044645D-01 -2.9686952181168D-01
    89  8.8000000000000D-01  7.3927558172968D-01 -2.5674619470771D-01
    90  8.9000000000000D-01  7.0163098424470D-01 -2.1915016362618D-01
    91  9.0000000000000D-01  6.6341653844768D-01 -1.8422961482647D-01
    92  9.1000000000000D-01  6.2480722412289D-01 -1.5208931351839D-01
    93  9.2000000000000D-01  5.8599586126640D-01 -1.2279018180361D-01
    94  9.3000000000000D-01  5.4719229398755D-01 -9.6349255684474D-02
    95  9.4000000000000D-01  5.0862306679176D-01 -7.2739599181557D-02
    96  9.5000000000000D-01  4.7052809973038D-01 -5.1892006714879D-02
    97  9.6000000000000D-01  4.3314425621712D-01 -3.3704171408159D-02
    98  9.7000000000000D-01  3.9668993369935D-01 -1.8051096270039D-02
    99  9.8000000000000D-01  3.6136296880814D-01 -4.7893826803822D-03
   100  9.9000000000000D-01  3.2734039504135D-01  6.2393553435826D-03
   101  1.0000000000000D+00  2.9477783772212D-01  1.5204933129902D-02
   102  1.0100000000000D+00  2.6380906487343D-01  2.2285158033563D-02
   103  1.0200000000000D+00  2.3454565033204D-01  2.7662528463910D-02
   104  1.0300000000000D+00  2.0707676676482D-01  3.1521105146594D-02
   105  1.0400000000000D+00  1.8146914266682D-01  3.4043597567450D-02
   106  1.0500000000000D+00  1.5776720863773D-01  3.5408701804335D-02
   107  1.0600000000000D+00  1.3599345403649D-01  3.5788721156857D-02
   108  1.0700000000000D+00  1.1614901048867D-01  3.5347495738713D-02
   109  1.0800000000000D+00  9.8214473305830D-02  3.4238661080811D-02
   110  1.0900000000000D+00  8.2150966470216D-02  3.2604249682236D-02
   111  1.1000000000000D+00  6.7901450888839D-02  3.0573642708946D-02
   112  1.1100000000000D+00  5.5392269032306D-02  2.8262871511327D-02
   113  1.1200000000000D+00  4.4534913131939D-02  2.5774261773687D-02
   114  1.1300000000000D+00  3.5227997143998D-02  2.3196404918579D-02
   115  1.1400000000000D+00  2.7359407690813D-02  2.0604435495499D-02
   116  1.1500000000000D+00  2.0808601259938D-02  1.8060583636831D-02
   117  1.1600000000000D+00  1.5449010471379D-02  1.5614965991485D-02
   118  1.1700000000000D+00  1.1150516578777D-02  1.3306571152464D-02
   119  1.1800000000000D+00  7.7819414296608D-03  1.1164390424191D-02
   120  1.1900000000000D+00  5.2135071701184D-03  9.2086374920045D-03
   121  1.2000000000000D+00  3.3192109322569D-03  7.4519980443294D-03
   122  1.2100000000000D+00  1.9790603004657D-03  5.9008475982936D-03
   123  1.2200000000000D+00  1.0811148266652D-03  4.5563731450783D-03
   124  1.2300000000000D+00  5.2328303604947D-04  3.4155371910287D-03
   125  1.2400000000000D+00  2.1482953373452D-04  2.4718275352359D-03
   126  1.2500000000000D+00  7.7549304603178D-05  1.7157373487036D-03
   127  1.2600000000000D+00  4.6582681797149D-05  1.1349371677643D-03
   128  1.2700000000000D+00  7.1133140694767D-05  7.1431743012175D-04
   129  1.2800000000000D+00  1.1325491256795D-04  4.3454482074602D-04
   130  1.2900000000000D+00  1.4628344240791D-04  2.6949417590298D-04
   131  1.3000000000000D+00  1.7841784347405D-04  2.0960643787405D-04
   132  1.3100000000000D+00  1.8416811850412D-04  1.9159077136258D-04
   133  1.3200000000000D+00  8.8331377210122D-05  9.1011365646769D-05
   134  1.3300000000000D+00 -1.0285770019802D-05 -1.0438410931964D-05
   135  1.3400000000000D+00 -1.0674594622973D-05 -1.0813947432501D-05
   136  1.3500000000000D+00  4.0926811540472D-06  4.1159224978336D-06
   137  1.3600000000000D+00 -8.0849114037019D-09 -8.3805903294582D-09
   138  1.3700000000000D+00 -4.4821532931069D-07 -4.6460732428263D-07
   139  1.3800000000000D+00  0.0000000000000D+00  0.0000000000000D+00
   140  1.3900000000000D+00  0.0000000000000D+00  0.0000000000000D+00
   141  1.4000000000000D+00  0.0000000000000D+00  0.0000000000000D+00
   142  1.4100000000000D+00  0.0000000000000D+00  0.0000000000000D+00
   143  1.4200000000000D+00  0.0000000000000D+00  0.0000000000000D+00
   144  1.4300000000000D+00  0.0000000000000D+00  0.0000000000000D+00
   145  1.4400000000000D+00  0.0000000000000D+00  0.0000000000000D+00
   146  1.4500000000000D+00  0.0000000000000D+00  0.0000000000000D+00
   147  1.4600000000000D+00  0.0000000000000D+00  0.0000000000000D+00
   148  1.4700000000000D+00  0.0000000000000D+00  0.0000000000000D+00
   149  1.4800000000000D+00  0.0000000000000D+00  0.0000000000000D+00
   150  1.4900000000000D+00  0.0000000000000D+00  0.0000000000000D+00
   151  1.5000000000000D+00  0.0000000000000D+00  0.0000000000000D+00
   152  1.5100000000000D+00  0.0000000000000D+00  0.0000000000000D+00
   153  1.5200000000000D+00  0.0000000000000D+00  0.0000000000000D+00
   154  1.5300000000000D+00  0.0000000000000D+00  0.0000000000000D+00
   155  1.5400000000000D+00  0.0000000000000D+00  0.0000000000000D+00
   156  1.5500000000000D+00  0.0000000000000D+00  0.0000000000000D+00
   157  1.5600000000000D+00  0.0000000000000D+00  0.0000000000000D+00
   158  1.5700000000000D+00  0.0000000000000D+00  0.0000000000000D+00
   159  1.5800000000000D+00  0.0000000000000D+00  0.0000000000000D+00
   160  1.5900000000000D+00  0.0000000000000D+00  0.0000000000000D+00
   161  1.6000000000000D+00  0.0000000000000D+00  0.0000000000000D+00
   162  1.6100000000000D+00  0.0000000000000D+00  0.0000000000000D+00
   163  1.6200000000000D+00  0.0000000000000D+00  0.0000000000000D+00
   164  1.6300000000000D+00  0.0000000000000D+00  0.0000000000000D+00
   165  1.6400000000000D+00  0.0000000000000D+00  0.0000000000000D+00
   166  1.6500000000000D+00  0.0000000000000D+00  0.0000000000000D+00
   167  1.6600000000000D+00  0.0000000000000D+00  0.0000000000000D+00
   168  1.6700000000000D+00  0.0000000000000D+00  0.0000000000000D+00
   169  1.6800000000000D+00  0.0000000000000D+00  0.0000000000000D+00
   170  1.6900000000000D+00  0.0000000000000D+00  0.0000000000000D+00
   171  1.7000000000000D+00  0.0000000000000D+00  0.0000000000000D+00
   172  1.7100000000000D+00  0.0000000000000D+00  0.0000000000000D+00
   173  1.7200000000000D+00  0.0000000000000D+00  0.0000000000000D+00
   174  1.7300000000000D+00  0.0000000000000D+00  0.0000000000000D+00
   175  1.7400000000000D+00  0.0000000000000D+00  0.0000000000000D+00
   176  1.7500000000000D+00  0.0000000000000D+00  0.0000000000000D+00
   177  1.7600000000000D+00  0.0000000000000D+00  0.0000000000000D+00
   178  1.7700000000000D+00  0.0000000000000D+00  0.0000000000000D+00
   179  1.7800000000000D+00  0.0000000000000D+00  0.0000000000000D+00
   180  1.7900000000000D+00  0.0000000000000D+00  0.0000000000000D+00
   181  1.8000000000000D+00  0.0000000000000D+00  0.0000000000000D+00
   182  1.8100000000000D+00  0.0000000000000D+00  0.0000000000000D+00
   183  1.8200000000000D+00  0.0000000000000D+00  0.0000000000000D+00
   184  1.8300000000000D+00  0.0000000000000D+00  0.0000000000000D+00
   185  1.8400000000000D+00  0.0000000000000D+00  0.0000000000000D+00
   186  1.8500000000000D+00  0.0000000000000D+00  0.0000000000000D+00
   187  1.8600000000000D+00  0.0000000000000D+00  0.0000000000000D+00
   188  1.8700000000000D+00  0.0000000000000D+00  0.0000000000000D+00
   189  1.8800000000000D+00  0.0000000000000D+00  0.0000000000000D+00
   190  1.8900000000000D+00  0.0000000000000D+00  0.0000000000000D+00
   191  1.9000000000000D+00  0.0000000000000D+00  0.0000000000000D+00
   192  1.9100000000000D+00  0.0000000000000D+00  0.0000000000000D+00
   193  1.9200000000000D+00  0.0000000000000D+00  0.0000000000000D+00
   194  1.9300000000000D+00  0.0000000000000D+00  0.0000000000000D+00
   195  1.9400000000000D+00  0.0000000000000D+00  0.0000000000000D+00
   196  1.9500000000000D+00  0.0000000000000D+00  0.0000000000000D+00
   197  1.9600000000000D+00  0.0000000000000D+00  0.0000000000000D+00
   198  1.9700000000000D+00  0.0000000000000D+00  0.0000000000000D+00
   199  1.9800000000000D+00  0.0000000000000D+00  0.0000000000000D+00
   200  1.9900000000000D+00  0.0000000000000D+00  0.0000000000000D+00
   201  2.0000000000000D+00  0.0000000000000D+00  0.0000000000000D+00
   202  2.0100000000000D+00  0.0000000000000D+00  0.0000000000000D+00
   203  2.0200000000000D+00  0.0000000000000D+00  0.0000000000000D+00
   204  2.0300000000000D+00  0.0000000000000D+00  0.0000000000000D+00
   205  2.0400000000000D+00  0.0000000000000D+00  0.0000000000000D+00
   206  2.0500000000000D+00  0.0000000000000D+00  0.0000000000000D+00
   207  2.0600000000000D+00  0.0000000000000D+00  0.0000000000000D+00
   208  2.0700000000000D+00  0.0000000000000D+00  0.0000000000000D+00
   209  2.0800000000000D+00  0.0000000000000D+00  0.0000000000000D+00
   210  2.0900000000000D+00  0.0000000000000D+00  0.0000000000000D+00
   211  2.1000000000000D+00  0.0000000000000D+00  0.0000000000000D+00
   212  2.1100000000000D+00  0.0000000000000D+00  0.0000000000000D+00
   213  2.1200000000000D+00  0.0000000000000D+00  0.0000000000000D+00
   214  2.1300000000000D+00  0.0000000000000D+00  0.0000000000000D+00
   215  2.1400000000000D+00  0.0000000000000D+00  0.0000000000000D+00
   216  2.1500000000000D+00  0.0000000000000D+00  0.0000000000000D+00
   217  2.1600000000000D+00  0.0000000000000D+00  0.0000000000000D+00
   218  2.1700000000000D+00  0.0000000000000D+00  0.0000000000000D+00
   219  2.1800000000000D+00  0.0000000000000D+00  0.0000000000000D+00
   220  2.1900000000000D+00  0.0000000000000D+00  0.0000000000000D+00
   221  2.2000000000000D+00  0.0000000000000D+00  0.0000000000000D+00
   222  2.2100000000000D+00  0.0000000000000D+00  0.0000000000000D+00
   223  2.2200000000000D+00  0.0000000000000D+00  0.0000000000000D+00
   224  2.2300000000000D+00  0.0000000000000D+00  0.0000000000000D+00
   225  2.2400000000000D+00  0.0000000000000D+00  0.0000000000000D+00
   226  2.2500000000000D+00  0.0000000000000D+00  0.0000000000000D+00
   227  2.2600000000000D+00  0.0000000000000D+00  0.0000000000000D+00
   228  2.2700000000000D+00  0.0000000000000D+00  0.0000000000000D+00
   229  2.2800000000000D+00  0.0000000000000D+00  0.0000000000000D+00
   230  2.2900000000000D+00  0.0000000000000D+00  0.0000000000000D+00
   231  2.3000000000000D+00  0.0000000000000D+00  0.0000000000000D+00
   232  2.3100000000000D+00  0.0000000000000D+00  0.0000000000000D+00
   233  2.3200000000000D+00  0.0000000000000D+00  0.0000000000000D+00
   234  2.3300000000000D+00  0.0000000000000D+00  0.0000000000000D+00
   235  2.3400000000000D+00  0.0000000000000D+00  0.0000000000000D+00
   236  2.3500000000000D+00  0.0000000000000D+00  0.0000000000000D+00
   237  2.3600000000000D+00  0.0000000000000D+00  0.0000000000000D+00
   238  2.3700000000000D+00  0.0000000000000D+00  0.0000000000000D+00
   239  2.3800000000000D+00  0.0000000000000D+00  0.0000000000000D+00
   240  2.3900000000000D+00  0.0000000000000D+00  0.0000000000000D+00
   241  2.4000000000000D+00  0.0000000000000D+00  0.0000000000000D+00
   242  2.4100000000000D+00  0.0000000000000D+00  0.0000000000000D+00
   243  2.4200000000000D+00  0.0000000000000D+00  0.0000000000000D+00
   244  2.4300000000000D+00  0.0000000000000D+00  0.0000000000000D+00
   245  2.4400000000000D+00  0.0000000000000D+00  0.0000000000000D+00
   246  2.4500000000000D+00  0.0000000000000D+00  0.0000000000000D+00
   247  2.4600000000000D+00  0.0000000000000D+00  0.0000000000000D+00
   248  2.4700000000000D+00  0.0000000000000D+00  0.0000000000000D+00
   249  2.4800000000000D+00  0.0000000000000D+00  0.0000000000000D+00
   250  2.4900000000000D+00  0.0000000000000D+00  0.0000000000000D+00
   251  2.5000000000000D+00  0.0000000000000D+00  0.0000000000000D+00
   252  2.5100000000000D+00  0.0000000000000D+00  0.0000000000000D+00
   253  2.5200000000000D+00  0.0000000000000D+00  0.0000000000000D+00
   254  2.5300000000000D+00  0.0000000000000D+00  0.0000000000000D+00
   255  2.5400000000000D+00  0.0000000000000D+00  0.0000000000000D+00
   256  2.5500000000000D+00  0.0000000000000D+00  0.0000000000000D+00
   257  2.5600000000000D+00  0.0000000000000D+00  0.0000000000000D+00
   258  2.5700000000000D+00  0.0000000000000D+00  0.0000000000000D+00
   259  2.5800000000000D+00  0.0000000000000D+00  0.0000000000000D+00
   260  2.5900000000000D+00  0.0000000000000D+00  0.0000000000000D+00
   261  2.6000000000000D+00  0.0000000000000D+00  0.0000000000000D+00
   262  2.6100000000000D+00  0.0000000000000D+00  0.0000000000000D+00
   263  2.6200000000000D+00  0.0000000000000D+00  0.0000000000000D+00
   264  2.6300000000000D+00  0.0000000000000D+00  0.0000000000000D+00
   265  2.6400000000000D+00  0.0000000000000D+00  0.0000000000000D+00
   266  2.6500000000000D+00  0.0000000000000D+00  0.0000000000000D+00
   267  2.6600000000000D+00  0.0000000000000D+00  0.0000000000000D+00
   268  2.6700000000000D+00  0.0000000000000D+00  0.0000000000000D+00
   269  2.6800000000000D+00  0.0000000000000D+00  0.0000000000000D+00
   270  2.6900000000000D+00  0.0000000000000D+00  0.0000000000000D+00
   271  2.7000000000000D+00  0.0000000000000D+00  0.0000000000000D+00
   272  2.7100000000000D+00  0.0000000000000D+00  0.0000000000000D+00
   273  2.7200000000000D+00  0.0000000000000D+00  0.0000000000000D+00
   274  2.7300000000000D+00  0.0000000000000D+00  0.0000000000000D+00
   275  2.7400000000000D+00  0.0000000000000D+00  0.0000000000000D+00
   276  2.7500000000000D+00  0.0000000000000D+00  0.0000000000000D+00
   277  2.7600000000000D+00  0.0000000000000D+00  0.0000000000000D+00
   278  2.7700000000000D+00  0.0000000000000D+00  0.0000000000000D+00
   279  2.7800000000000D+00  0.0000000000000D+00  0.0000000000000D+00
   280  2.7900000000000D+00  0.0000000000000D+00  0.0000000000000D+00
   281  2.8000000000000D+00  0.0000000000000D+00  0.0000000000000D+00
   282  2.8100000000000D+00  0.0000000000000D+00  0.0000000000000D+00
   283  2.8200000000000D+00  0.0000000000000D+00  0.0000000000000D+00
   284  2.8300000000000D+00  0.0000000000000D+00  0.0000000000000D+00
   285  2.8400000000000D+00  0.0000000000000D+00  0.0000000000000D+00
   286  2.8500000000000D+00  0.0000000000000D+00  0.0000000000000D+00
   287  2.8600000000000D+00  0.0000000000000D+00  0.0000000000000D+00
   288  2.8700000000000D+00  0.0000000000000D+00  0.0000000000000D+00
   289  2.8800000000000D+00  0.0000000000000D+00  0.0000000000000D+00
   290  2.8900000000000D+00  0.0000000000000D+00  0.0000000000000D+00
   291  2.9000000000000D+00  0.0000000000000D+00  0.0000000000000D+00
   292  2.9100000000000D+00  0.0000000000000D+00  0.0000000000000D+00
   293  2.9200000000000D+00  0.0000000000000D+00  0.0000000000000D+00
   294  2.9300000000000D+00  0.0000000000000D+00  0.0000000000000D+00
   295  2.9400000000000D+00  0.0000000000000D+00  0.0000000000000D+00
   296  2.9500000000000D+00  0.0000000000000D+00  0.0000000000000D+00
   297  2.9600000000000D+00  0.0000000000000D+00  0.0000000000000D+00
   298  2.9700000000000D+00  0.0000000000000D+00  0.0000000000000D+00
   299  2.9800000000000D+00  0.0000000000000D+00  0.0000000000000D+00
   300  2.9900000000000D+00  0.0000000000000D+00  0.0000000000000D+00
   301  3.0000000000000D+00  0.0000000000000D+00  0.0000000000000D+00
   302  3.0100000000000D+00  0.0000000000000D+00  0.0000000000000D+00
   303  3.0200000000000D+00  0.0000000000000D+00  0.0000000000000D+00
   304  3.0300000000000D+00  0.0000000000000D+00  0.0000000000000D+00
   305  3.0400000000000D+00  0.0000000000000D+00  0.0000000000000D+00
   306  3.0500000000000D+00  0.0000000000000D+00  0.0000000000000D+00
   307  3.0600000000000D+00  0.0000000000000D+00  0.0000000000000D+00
   308  3.0700000000000D+00  0.0000000000000D+00  0.0000000000000D+00
   309  3.0800000000000D+00  0.0000000000000D+00  0.0000000000000D+00
   310  3.0900000000000D+00  0.0000000000000D+00  0.0000000000000D+00
   311  3.1000000000000D+00  0.0000000000000D+00  0.0000000000000D+00
   312  3.1100000000000D+00  0.0000000000000D+00  0.0000000000000D+00
   313  3.1200000000000D+00  0.0000000000000D+00  0.0000000000000D+00
   314  3.1300000000000D+00  0.0000000000000D+00  0.0000000000000D+00
   315  3.1400000000000D+00  0.0000000000000D+00  0.0000000000000D+00
   316  3.1500000000000D+00  0.0000000000000D+00  0.0000000000000D+00
   317  3.1600000000000D+00  0.0000000000000D+00  0.0000000000000D+00
   318  3.1700000000000D+00  0.0000000000000D+00  0.0000000000000D+00
   319  3.1800000000000D+00  0.0000000000000D+00  0.0000000000000D+00
   320  3.1900000000000D+00  0.0000000000000D+00  0.0000000000000D+00
   321  3.2000000000000D+00  0.0000000000000D+00  0.0000000000000D+00
   322  3.2100000000000D+00  0.0000000000000D+00  0.0000000000000D+00
   323  3.2200000000000D+00  0.0000000000000D+00  0.0000000000000D+00
   324  3.2300000000000D+00  0.0000000000000D+00  0.0000000000000D+00
   325  3.2400000000000D+00  0.0000000000000D+00  0.0000000000000D+00
   326  3.2500000000000D+00  0.0000000000000D+00  0.0000000000000D+00
   327  3.2600000000000D+00  0.0000000000000D+00  0.0000000000000D+00
   328  3.2700000000000D+00  0.0000000000000D+00  0.0000000000000D+00
   329  3.2800000000000D+00  0.0000000000000D+00  0.0000000000000D+00
   330  3.2900000000000D+00  0.0000000000000D+00  0.0000000000000D+00
   331  3.3000000000000D+00  0.0000000000000D+00  0.0000000000000D+00
   332  3.3100000000000D+00  0.0000000000000D+00  0.0000000000000D+00
   333  3.3200000000000D+00  0.0000000000000D+00  0.0000000000000D+00
   334  3.3300000000000D+00  0.0000000000000D+00  0.0000000000000D+00
   335  3.3400000000000D+00  0.0000000000000D+00  0.0000000000000D+00
   336  3.3500000000000D+00  0.0000000000000D+00  0.0000000000000D+00
   337  3.3600000000000D+00  0.0000000000000D+00  0.0000000000000D+00
   338  3.3700000000000D+00  0.0000000000000D+00  0.0000000000000D+00
   339  3.3800000000000D+00  0.0000000000000D+00  0.0000000000000D+00
   340  3.3900000000000D+00  0.0000000000000D+00  0.0000000000000D+00
   341  3.4000000000000D+00  0.0000000000000D+00  0.0000000000000D+00
   342  3.4100000000000D+00  0.0000000000000D+00  0.0000000000000D+00
   343  3.4200000000000D+00  0.0000000000000D+00  0.0000000000000D+00
   344  3.4300000000000D+00  0.0000000000000D+00  0.0000000000000D+00
   345  3.4400000000000D+00  0.0000000000000D+00  0.0000000000000D+00
   346  3.4500000000000D+00  0.0000000000000D+00  0.0000000000000D+00
   347  3.4600000000000D+00  0.0000000000000D+00  0.0000000000000D+00
   348  3.4700000000000D+00  0.0000000000000D+00  0.0000000000000D+00
   349  3.4800000000000D+00  0.0000000000000D+00  0.0000000000000D+00
   350  3.4900000000000D+00  0.0000000000000D+00  0.0000000000000D+00
   351  3.5000000000000D+00  0.0000000000000D+00  0.0000000000000D+00
   352  3.5100000000000D+00  0.0000000000000D+00  0.0000000000000D+00
   353  3.5200000000000D+00  0.0000000000000D+00  0.0000000000000D+00
   354  3.5300000000000D+00  0.0000000000000D+00  0.0000000000000D+00
   355  3.5400000000000D+00  0.0000000000000D+00  0.0000000000000D+00
   356  3.5500000000000D+00  0.0000000000000D+00  0.0000000000000D+00
   357  3.5600000000000D+00  0.0000000000000D+00  0.0000000000000D+00
   358  3.5700000000000D+00  0.0000000000000D+00  0.0000000000000D+00
   359  3.5800000000000D+00  0.0000000000000D+00  0.0000000000000D+00
   360  3.5900000000000D+00  0.0000000000000D+00  0.0000000000000D+00
   361  3.6000000000000D+00  0.0000000000000D+00  0.0000000000000D+00
   362  3.6100000000000D+00  0.0000000000000D+00  0.0000000000000D+00
   363  3.6200000000000D+00  0.0000000000000D+00  0.0000000000000D+00
   364  3.6300000000000D+00  0.0000000000000D+00  0.0000000000000D+00
   365  3.6400000000000D+00  0.0000000000000D+00  0.0000000000000D+00
   366  3.6500000000000D+00  0.0000000000000D+00  0.0000000000000D+00
   367  3.6600000000000D+00  0.0000000000000D+00  0.0000000000000D+00
   368  3.6700000000000D+00  0.0000000000000D+00  0.0000000000000D+00
   369  3.6800000000000D+00  0.0000000000000D+00  0.0000000000000D+00
   370  3.6900000000000D+00  0.0000000000000D+00  0.0000000000000D+00
   371  3.7000000000000D+00  0.0000000000000D+00  0.0000000000000D+00
   372  3.7100000000000D+00  0.0000000000000D+00  0.0000000000000D+00
   373  3.7200000000000D+00  0.0000000000000D+00  0.0000000000000D+00
   374  3.7300000000000D+00  0.0000000000000D+00  0.0000000000000D+00
   375  3.7400000000000D+00  0.0000000000000D+00  0.0000000000000D+00
   376  3.7500000000000D+00  0.0000000000000D+00  0.0000000000000D+00
   377  3.7600000000000D+00  0.0000000000000D+00  0.0000000000000D+00
   378  3.7700000000000D+00  0.0000000000000D+00  0.0000000000000D+00
   379  3.7800000000000D+00  0.0000000000000D+00  0.0000000000000D+00
   380  3.7900000000000D+00  0.0000000000000D+00  0.0000000000000D+00
   381  3.8000000000000D+00  0.0000000000000D+00  0.0000000000000D+00
   382  3.8100000000000D+00  0.0000000000000D+00  0.0000000000000D+00
   383  3.8200000000000D+00  0.0000000000000D+00  0.0000000000000D+00
   384  3.8300000000000D+00  0.0000000000000D+00  0.0000000000000D+00
   385  3.8400000000000D+00  0.0000000000000D+00  0.0000000000000D+00
   386  3.8500000000000D+00  0.0000000000000D+00  0.0000000000000D+00
   387  3.8600000000000D+00  0.0000000000000D+00  0.0000000000000D+00
   388  3.8700000000000D+00  0.0000000000000D+00  0.0000000000000D+00
   389  3.8800000000000D+00  0.0000000000000D+00  0.0000000000000D+00
   390  3.8900000000000D+00  0.0000000000000D+00  0.0000000000000D+00
   391  3.9000000000000D+00  0.0000000000000D+00  0.0000000000000D+00
   392  3.9100000000000D+00  0.0000000000000D+00  0.0000000000000D+00
   393  3.9200000000000D+00  0.0000000000000D+00  0.0000000000000D+00
   394  3.9300000000000D+00  0.0000000000000D+00  0.0000000000000D+00
   395  3.9400000000000D+00  0.0000000000000D+00  0.0000000000000D+00
   396  3.9500000000000D+00  0.0000000000000D+00  0.0000000000000D+00
   397  3.9600000000000D+00  0.0000000000000D+00  0.0000000000000D+00
   398  3.9700000000000D+00  0.0000000000000D+00  0.0000000000000D+00
   399  3.9800000000000D+00  0.0000000000000D+00  0.0000000000000D+00
   400  3.9900000000000D+00  0.0000000000000D+00  0.0000000000000D+00
   401  4.0000000000000D+00  0.0000000000000D+00  0.0000000000000D+00
   402  4.0100000000000D+00  0.0000000000000D+00  0.0000000000000D+00
   403  4.0200000000000D+00  0.0000000000000D+00  0.0000000000000D+00
   404  4.0300000000000D+00  0.0000000000000D+00  0.0000000000000D+00
   405  4.0400000000000D+00  0.0000000000000D+00  0.0000000000000D+00
   406  4.0500000000000D+00  0.0000000000000D+00  0.0000000000000D+00
   407  4.0600000000000D+00  0.0000000000000D+00  0.0000000000000D+00
   408  4.0700000000000D+00  0.0000000000000D+00  0.0000000000000D+00
   409  4.0800000000000D+00  0.0000000000000D+00  0.0000000000000D+00
   410  4.0900000000000D+00  0.0000000000000D+00  0.0000000000000D+00
   411  4.1000000000000D+00  0.0000000000000D+00  0.0000000000000D+00
   412  4.1100000000000D+00  0.0000000000000D+00  0.0000000000000D+00
   413  4.1200000000000D+00  0.0000000000000D+00  0.0000000000000D+00
   414  4.1300000000000D+00  0.0000000000000D+00  0.0000000000000D+00
   415  4.1400000000000D+00  0.0000000000000D+00  0.0000000000000D+00
   416  4.1500000000000D+00  0.0000000000000D+00  0.0000000000000D+00
   417  4.1600000000000D+00  0.0000000000000D+00  0.0000000000000D+00
   418  4.1700000000000D+00  0.0000000000000D+00  0.0000000000000D+00
   419  4.1800000000000D+00  0.0000000000000D+00  0.0000000000000D+00
   420  4.1900000000000D+00  0.0000000000000D+00  0.0000000000000D+00
   421  4.2000000000000D+00  0.0000000000000D+00  0.0000000000000D+00
   422  4.2100000000000D+00  0.0000000000000D+00  0.0000000000000D+00