Ar    ONCVPSP-3.3.1  r_core=   2.67516   1.78325
     18.0000      8.0000      210904    zatom,zion,pspd
     8      11   1     4   600     0    pspcod,pspxc,lmax,lloc,mmax,r2well
  5.99000000  0.00000000  0.00000000    rchrg fchrg qchrg
     2     2     0     0     0    nproj
     1     1           extension_switch
   0                        -2.9457826913447D+00  2.7714661499926D+00
     1  0.0000000000000D+00 -2.4421520361528D-11 -6.8508254624788D-12
     2  1.0000000000000D-02 -4.1347915264992D-02  2.5781094130034D-02
     3  2.0000000000000D-02 -8.2642766677948D-02  5.1546851336724D-02
     4  3.0000000000000D-02 -1.2383145406477D-01  7.7281972755331D-02
     5  4.0000000000000D-02 -1.6486080546006D-01  1.0297123538171D-01
     6  5.0000000000000D-02 -2.0567754333727D-01  1.2859952936279D-01
     7  6.0000000000000D-02 -2.4622825337247D-01  1.5415189452412D-01
     8  7.0000000000000D-02 -2.8645935655768D-01  1.7961355588826D-01
     9  8.0000000000000D-02 -3.2631708545490D-01  2.0496995794459D-01
    10  9.0000000000000D-02 -3.6574746535222D-01  2.3020679743967D-01
    11  1.0000000000000D-01 -4.0469630104716D-01  2.5531005446712D-01
    12  1.1000000000000D-01 -4.4310916994144D-01  2.8026602164795D-01
    13  1.2000000000000D-01 -4.8093142208459D-01  3.0506133120478D-01
    14  1.3000000000000D-01 -5.1810818775299D-01  3.2968297974812D-01
    15  1.4000000000000D-01 -5.5458439309489D-01  3.5411835060832D-01
    16  1.5000000000000D-01 -5.9030478431187D-01  3.7835523356355D-01
    17  1.6000000000000D-01 -6.2521396078381D-01  4.0238184183222D-01
    18  1.7000000000000D-01 -6.5925641747685D-01  4.2618682621659D-01
    19  1.8000000000000D-01 -6.9237659690395D-01  4.4975928630443D-01
    20  1.9000000000000D-01 -7.2451895083469D-01  4.7308877865551D-01
    21  2.0000000000000D-01 -7.5562801187644D-01  4.9616532192067D-01
    22  2.1000000000000D-01 -7.8564847497238D-01  5.1897939886243D-01
    23  2.2000000000000D-01 -8.1452528878443D-01  5.4152195526786D-01
    24  2.3000000000000D-01 -8.4220375685107D-01  5.6378439576598D-01
    25  2.4000000000000D-01 -8.6862964833147D-01  5.8575857658360D-01
    26  2.5000000000000D-01 -8.9374931806966D-01  6.0743679529552D-01
    27  2.6000000000000D-01 -9.1750983563529D-01  6.2881177764596D-01
    28  2.7000000000000D-01 -9.3985912292172D-01  6.4987666153909D-01
    29  2.8000000000000D-01 -9.6074609980835D-01  6.7062497831721D-01
    30  2.9000000000000D-01 -9.8012083732252D-01  6.9105063146454D-01
    31  3.0000000000000D-01 -9.9793471766752D-01  7.1114787289352D-01
    32  3.1000000000000D-01 -1.0141406004175D+00  7.3091127698879D-01
    33  3.2000000000000D-01 -1.0286929941182D+00  7.5033571260054D-01
    34  3.3000000000000D-01 -1.0415482324752D+00  7.6941631319507D-01
    35  3.4000000000000D-01 -1.0526646542568D+00  7.8814844538460D-01
    36  3.5000000000000D-01 -1.0620027859902D+00  8.0652767607182D-01
    37  3.6000000000000D-01 -1.0695255264889D+00  8.2454973845595D-01
    38  3.7000000000000D-01 -1.0751983322055D+00  8.4221049715771D-01
    39  3.8000000000000D-01 -1.0789894023793D+00  8.5950591272871D-01
    40  3.9000000000000D-01 -1.0808698629142D+00  8.7643200581782D-01
    41  4.0000000000000D-01 -1.0808139479081D+00  8.9298482127236D-01
    42  4.1000000000000D-01 -1.0787991777386D+00  9.0916039245500D-01
    43  4.2000000000000D-01 -1.0748065326022D+00  9.2495470605922D-01
    44  4.3000000000000D-01 -1.0688206204036D+00  9.4036366770559D-01
    45  4.4000000000000D-01 -1.0608298378989D+00  9.5538306859944D-01
    46  4.5000000000000D-01 -1.0508265240074D+00  9.7000855352639D-01
    47  4.6000000000000D-01 -1.0388071042249D+00  9.8423559045657D-01
    48  4.7000000000000D-01 -1.0247722250998D+00  9.9805944202103D-01
    49  4.8000000000000D-01 -1.0087268777617D+00  1.0114751391146D+00
    50  4.9000000000000D-01 -9.9068050953348D-01  1.0244774568686D+00
    51  5.0000000000000D-01 -9.7064712269949D-01  1.0370608932241D+00
    52  5.1000000000000D-01 -9.4864535955484D-01  1.0492196503228D+00
    53  5.2000000000000D-01 -9.2469857291495D-01  1.0609476189164D+00
    54  5.3000000000000D-01 -8.9883488132653D-01  1.0722383659792D+00
    55  5.4000000000000D-01 -8.7108720828701D-01  1.0830851256895D+00
    56  5.5000000000000D-01 -8.4149330485039D-01  1.0934807939264D+00
    57  5.6000000000000D-01 -8.1009575507263D-01  1.1034179264079D+00
    58  5.7000000000000D-01 -7.7694196382866D-01  1.1128887405752D+00
    59  5.8000000000000D-01 -7.4208412661598D-01  1.1218851213039D+00
    60  5.9000000000000D-01 -7.0557918104501D-01  1.1303986305031D+00
    61  6.0000000000000D-01 -6.6748873980484D-01  1.1384205206350D+00
    62  6.1000000000000D-01 -6.2787900498331D-01  1.1459417521691D+00
    63  6.2000000000000D-01 -5.8682066371200D-01  1.1529530149546D+00
    64  6.3000000000000D-01 -5.4438876520021D-01  1.1594447534752D+00
    65  6.4000000000000D-01 -5.0066257931489D-01  1.1654071959237D+00
    66  6.5000000000000D-01 -4.5572543695800D-01  1.1708303870077D+00
    67  6.6000000000000D-01 -4.0966455258540D-01  1.1757042243776D+00
    68  6.7000000000000D-01 -3.6257082930383D-01  1.1800184985405D+00
    69  6.8000000000000D-01 -3.1453864707358D-01  1.1837629361019D+00
    70  6.9000000000000D-01 -2.6566563463322D-01  1.1869272461557D+00
    71  7.0000000000000D-01 -2.1605242584886D-01  1.1895011696194D+00
    72  7.1000000000000D-01 -1.6580240127447D-01  1.1914745312925D+00
    73  7.2000000000000D-01 -1.1502141578943D-01  1.1928372943941D+00
    74  7.3000000000000D-01 -6.3817513255866D-02  1.1935796173210D+00
    75  7.4000000000000D-01 -1.2300629210443D-02  1.1936919123477D+00
    76  7.5000000000000D-01  3.9417717327795D-02  1.1931649059733D+00
    77  7.6000000000000D-01  9.1224741789221D-02  1.1919897006115D+00
    78  7.7000000000000D-01  1.4300672052416D-01  1.1901578372998D+00
    79  7.8000000000000D-01  1.9464932456005D-01  1.1876613591002D+00
    80  7.9000000000000D-01  2.4603795934781D-01  1.1844928748505D+00
    81  8.0000000000000D-01  2.9705810916126D-01  1.1806456229192D+00
    82  8.1000000000000D-01  3.4759568478085D-01  1.1761135346129D+00
    83  8.2000000000000D-01  3.9753737306699D-01  1.1708912968794D+00
    84  8.3000000000000D-01  4.4677098700961D-01  1.1649744139505D+00
    85  8.4000000000000D-01  4.9518581482793D-01  1.1583592675672D+00
    86  8.5000000000000D-01  5.4267296668966D-01  1.1510431754340D+00
    87  8.6000000000000D-01  5.8912571762044D-01  1.1430244475512D+00
    88  8.7000000000000D-01  6.3443984518305D-01  1.1343024400828D+00
    89  8.8000000000000D-01  6.7851396052194D-01  1.1248776064239D+00
    90  8.9000000000000D-01  7.2124983139092D-01  1.1147515451425D+00
    91  9.0000000000000D-01  7.6255269581124D-01  1.1039270444819D+00
    92  9.1000000000000D-01  8.0233156504351D-01  1.0924081231229D+00
    93  9.2000000000000D-01  8.4049951459855D-01  1.0802000669222D+00
    94  9.3000000000000D-01  8.7697396206147D-01  1.0673094613574D+00
    95  9.4000000000000D-01  9.1167693055698D-01  1.0537442194289D+00
    96  9.5000000000000D-01  9.4453529674426D-01  1.0395136047884D+00
    97  9.6000000000000D-01  9.7548102229484D-01  1.0246282498853D+00
    98  9.7000000000000D-01  1.0044513678769D+00  1.0091001689406D+00
    99  9.8000000000000D-01  1.0313890887447D+00  9.9294276558804D-01
   100  9.9000000000000D-01  1.0562426111103D+00  9.7617083503844D-01
   101  1.0000000000000D+00  1.0789661885568D+00  9.5880056065322D-01
   102  1.0100000000000D+00  1.0995200378391D+00  9.4084950483687D-01
   103  1.0200000000000D+00  1.1178704535075D+00  9.2233659418366D-01
   104  1.0300000000000D+00  1.1339899008784D+00  9.0328209884080D-01
   105  1.0400000000000D+00  1.1478570869718D+00  8.8370760607640D-01
   106  1.0500000000000D+00  1.1594570091303D+00  8.6363598806814D-01
   107  1.0600000000000D+00  1.1687809811225D+00  8.4309136395264D-01
   108  1.0700000000000D+00  1.1758266366423D+00  8.2209905620506D-01
   109  1.0800000000000D+00  1.1805979101989D+00  8.0068554144196D-01
   110  1.0900000000000D+00  1.1831049954951D+00  7.7887839576704D-01
   111  1.1000000000000D+00  1.1833642814862D+00  7.5670623480440D-01
   112  1.1100000000000D+00  1.1813982663919D+00  7.3419864858567D-01
   113  1.1200000000000D+00  1.1772354500445D+00  7.1138613148423D-01
   114  1.1300000000000D+00  1.1709102050271D+00  6.8830000740883D-01
   115  1.1400000000000D+00  1.1624626271572D+00  6.6497235049251D-01
   116  1.1500000000000D+00  1.1519383659276D+00  6.4143590152766D-01
   117  1.1600000000000D+00  1.1393884356262D+00  6.1772398042277D-01
   118  1.1700000000000D+00  1.1248690079093D+00  5.9387039496891D-01
   119  1.1800000000000D+00  1.1084411866825D+00  5.6990934622136D-01
   120  1.1900000000000D+00  1.0901707661953D+00  5.4587533081274D-01
   121  1.2000000000000D+00  1.0701279733357D+00  5.2180304053061D-01
   122  1.2100000000000D+00  1.0483871951550D+00  4.9772725949992D-01
   123  1.2200000000000D+00  1.0250266926939D+00  4.7368275931801D-01
   124  1.2300000000000D+00  1.0001283022395D+00  4.4970419250016D-01
   125  1.2400000000000D+00  9.7377712517705D-01  4.2582598459615D-01
   126  1.2500000000000D+00  9.4606120762300D-01  4.0208222534104D-01
   127  1.2600000000000D+00  9.1707121105843D-01  3.7850655920646D-01
   128  1.2700000000000D+00  8.8690007520582D-01  3.5513207571619D-01
   129  1.2800000000000D+00  8.5564267439176D-01  3.3199119988651D-01
   130  1.2900000000000D+00  8.2339546865898D-01  3.0911558315217D-01
   131  1.3000000000000D+00  7.9025615088304D-01  2.8653599512486D-01
   132  1.3100000000000D+00  7.5632329114179D-01  2.6428221652832D-01
   133  1.3200000000000D+00  7.2169597959112D-01  2.4238293364825D-01
   134  1.3300000000000D+00  6.8647346905137D-01  2.2086563460967D-01
   135  1.3400000000000D+00  6.5075481851747D-01  1.9975650779871D-01
   136  1.3500000000000D+00  6.1463853877247D-01  1.7908034272534D-01
   137  1.3600000000000D+00  5.7822224113200D-01  1.5886043311020D-01
   138  1.3700000000000D+00  5.4160229092788D-01  1.3911848560094D-01
   139  1.3800000000000D+00  5.0487346451491D-01  1.1987452178361D-01
   140  1.3900000000000D+00  4.6812862035964D-01  1.0114682070538D-01
   141  1.4000000000000D+00  4.3145835956703D-01  8.2951779470844D-02
   142  1.4100000000000D+00  3.9495071200750D-01  6.5303842331796D-02
   143  1.4200000000000D+00  3.5869086856965D-01  4.8215774210395D-02
   144  1.4300000000000D+00  3.2276096597026D-01  3.1698887306975D-02
   145  1.4400000000000D+00  2.8723993728013D-01  1.5763346524796D-02
   146  1.4500000000000D+00  2.5220334372581D-01  4.1815001482285D-04
   147  1.4600000000000D+00  2.1772322758166D-01 -1.4328948517347D-02
   148  1.4700000000000D+00  1.8386798237559D-01 -2.8471418158907D-02
   149  1.4800000000000D+00  1.5070223918224D-01 -4.2003969334818D-02
   150  1.4900000000000D+00  1.1828677008692D-01 -5.4922553794989D-02
   151  1.5000000000000D+00  8.6678407861228D-02 -6.7224363913187D-02
   152  1.5100000000000D+00  5.5929981826268D-02 -7.8907826851661D-02
   153  1.5200000000000D+00  2.6090269772968D-02 -8.9972594381909D-02
   154  1.5300000000000D+00 -2.7960346439147D-03 -1.0041952856872D-01
   155  1.5400000000000D+00 -3.0688339165546D-02 -1.1025068342726D-01
   156  1.5500000000000D+00 -5.7550155495656D-02 -1.1946928277572D-01
   157  1.5600000000000D+00 -8.3349087473871D-02 -1.2807969443062D-01
   158  1.5700000000000D+00 -1.0805680547210D-01 -1.3608740095855D-01
   159  1.5800000000000D+00 -1.3164900750829D-01 -1.4349896717161D-01
   160  1.5900000000000D+00 -1.5410536765313D-01 -1.5032200457379D-01
   161  1.6000000000000D+00 -1.7540947237666D-01 -1.5656513297523D-01
   162  1.6100000000000D+00 -1.9554874539171D-01 -1.6223793947865D-01
   163  1.6200000000000D+00 -2.1451436174165D-01 -1.6735093507089D-01
   164  1.6300000000000D+00 -2.3230115169911D-01 -1.7191550903031D-01
   165  1.6400000000000D+00 -2.4890749526963D-01 -1.7594388138363D-01
   166  1.6500000000000D+00 -2.6433520790345D-01 -1.7944905363543D-01
   167  1.6600000000000D+00 -2.7858941820547D-01 -1.8244475799151D-01
   168  1.6700000000000D+00 -2.9167843830594D-01 -1.8494540531768D-01
   169  1.6800000000000D+00 -3.0361362763354D-01 -1.8696603203028D-01
   170  1.6900000000000D+00 -3.1440925082964D-01 -1.8852224618296D-01
   171  1.7000000000000D+00 -3.2408233046863D-01 -1.8963017292044D-01
   172  1.7100000000000D+00 -3.3265249539313D-01 -1.9030639957029D-01
   173  1.7200000000000D+00 -3.4014182518373D-01 -1.9056792046038D-01
   174  1.7300000000000D+00 -3.4657469178490D-01 -1.9043208191102D-01
   175  1.7400000000000D+00 -3.5197759873417D-01 -1.8991652750538D-01
   176  1.7500000000000D+00 -3.5637901858236D-01 -1.8903914350342D-01
   177  1.7600000000000D+00 -3.5980922895396D-01 -1.8781800460803D-01
   178  1.7700000000000D+00 -3.6230014896361D-01 -1.8627132125368D-01
   179  1.7800000000000D+00 -3.6388517581035D-01 -1.8441738795752D-01
   180  1.7900000000000D+00 -3.6459902174487D-01 -1.8227453210164D-01
   181  1.8000000000000D+00 -3.6447755209058D-01 -1.7986106374456D-01
   182  1.8100000000000D+00 -3.6355762580278D-01 -1.7719522743866D-01
   183  1.8200000000000D+00 -3.6187693848662D-01 -1.7429515571324D-01
   184  1.8300000000000D+00 -3.5947386820714D-01 -1.7117882400091D-01
   185  1.8400000000000D+00 -3.5638732459629D-01 -1.6786400723291D-01
   186  1.8500000000000D+00 -3.5265660178120D-01 -1.6436823838639D-01
   187  1.8600000000000D+00 -3.4832123576081D-01 -1.6070876911873D-01
   188  1.8700000000000D+00 -3.4342086605569D-01 -1.5690253233160D-01
   189  1.8800000000000D+00 -3.3799510270741D-01 -1.5296610700757D-01
   190  1.8900000000000D+00 -3.3208339802352D-01 -1.4891568508298D-01
   191  1.9000000000000D+00 -3.2572492437862D-01 -1.4476704074071D-01
   192  1.9100000000000D+00 -3.1895845730106D-01 -1.4053550183709D-01
   193  1.9200000000000D+00 -3.1182226489662D-01 -1.3623592376205D-01
   194  1.9300000000000D+00 -3.0435400324222D-01 -1.3188266558063D-01
   195  1.9400000000000D+00 -2.9659061810242D-01 -1.2748956852736D-01
   196  1.9500000000000D+00 -2.8856825326610D-01 -1.2306993690837D-01
   197  1.9600000000000D+00 -2.8032216500106D-01 -1.1863652121168D-01
   198  1.9700000000000D+00 -2.7188664367278D-01 -1.1420150374582D-01
   199  1.9800000000000D+00 -2.6329494151831D-01 -1.0977648649200D-01
   200  1.9900000000000D+00 -2.5457920731241D-01 -1.0537248118642D-01
   201  2.0000000000000D+00 -2.4577042726255D-01 -1.0099990147967D-01
   202  2.0100000000000D+00 -2.3689837270301D-01 -9.6668557433599D-02
   203  2.0200000000000D+00 -2.2799155468593D-01 -9.2387652369358D-02
   204  2.0300000000000D+00 -2.1907718472050D-01 -8.8165781790109D-02
   205  2.0400000000000D+00 -2.1018114158915D-01 -8.4010933838675D-02
   206  2.0500000000000D+00 -2.0132794399881D-01 -7.9930491671724D-02
   207  2.0600000000000D+00 -1.9254072984762D-01 -7.5931238015230D-02
   208  2.0700000000000D+00 -1.8384124132675D-01 -7.2019361513129D-02
   209  2.0800000000000D+00 -1.7524981547781D-01 -6.8200464689499D-02
   210  2.0900000000000D+00 -1.6678538026213D-01 -6.4479573363873D-02
   211  2.1000000000000D+00 -1.5846545564070D-01 -6.0861147579359D-02
   212  2.1100000000000D+00 -1.5030615995539D-01 -5.7349094014035D-02
   213  2.1200000000000D+00 -1.4232222098423D-01 -5.3946779669819D-02
   214  2.1300000000000D+00 -1.3452699145321D-01 -5.0657046752797D-02
   215  2.1400000000000D+00 -1.2693246896842D-01 -4.7482228662465D-02
   216  2.1500000000000D+00 -1.1954931983091D-01 -4.4424166995330D-02
   217  2.1600000000000D+00 -1.1238690668821D-01 -4.1484229440791D-02
   218  2.1700000000000D+00 -1.0545331966063D-01 -3.8663328490881D-02
   219  2.1800000000000D+00 -9.8755410681685D-02 -3.5961940883360D-02
   220  2.1900000000000D+00 -9.2298830777788D-02 -3.3380127601260D-02
   221  2.2000000000000D+00 -8.6088070087286D-02 -3.0917554460840D-02
   222  2.2100000000000D+00 -8.0126500248252D-02 -2.8573513080642D-02
   223  2.2200000000000D+00 -7.4416418902990D-02 -2.6346942160786D-02
   224  2.2300000000000D+00 -6.8959096282802D-02 -2.4236449121869D-02
   225  2.2400000000000D+00 -6.3754823159658D-02 -2.2240331750266D-02
   226  2.2500000000000D+00 -5.8802960384311D-02 -2.0356600031822D-02
   227  2.2600000000000D+00 -5.4101989591898D-02 -1.8582997996893D-02
   228  2.2700000000000D+00 -4.9649564570111D-02 -1.6917025373075D-02
   229  2.2800000000000D+00 -4.5442563661241D-02 -1.5355959259711D-02
   230  2.2900000000000D+00 -4.1477142382629D-02 -1.3896875482215D-02
   231  2.3000000000000D+00 -3.7748786231590D-02 -1.2536669645729D-02
   232  2.3100000000000D+00 -3.4252363975968D-02 -1.1272078043690D-02
   233  2.3200000000000D+00 -3.0982180241673D-02 -1.0099697945058D-02
   234  2.3300000000000D+00 -2.7932028070162D-02 -9.0160075691482D-03
   235  2.3400000000000D+00 -2.5095241208258D-02 -8.0173856695372D-03
   236  2.3500000000000D+00 -2.2464745181362D-02 -7.1001303721866D-03
   237  2.3600000000000D+00 -2.0033108059140D-02 -6.2604776495729D-03
   238  2.3700000000000D+00 -1.7792590216678D-02 -5.4946191781660D-03
   239  2.3800000000000D+00 -1.5735192666866D-02 -4.7987194399475D-03
   240  2.3900000000000D+00 -1.3852704738715D-02 -4.1689323770633D-03
   241  2.4000000000000D+00 -1.2136750175941D-02 -3.6014172762762D-03
   242  2.4100000000000D+00 -1.0578831702591D-02 -3.0923539203418D-03
   243  2.4200000000000D+00 -9.1703746320677D-03 -2.6379572255726D-03
   244  2.4300000000000D+00 -7.9027684727382D-03 -2.2344910186206D-03
   245  2.4400000000000D+00 -6.7674069630853D-03 -1.8782811198148D-03
   246  2.4500000000000D+00 -5.7557268975576D-03 -1.5657278632650D-03
   247  2.4600000000000D+00 -4.8592446894519D-03 -1.2933177293940D-03
   248  2.4700000000000D+00 -4.0695913538244D-03 -1.0576343260770D-03
   249  2.4800000000000D+00 -3.3785460819658D-03 -8.5536877495387D-04
   250  2.4900000000000D+00 -2.7780674511695D-03 -6.8332924103352D-04
   251  2.5000000000000D+00 -2.2603230471514D-03 -5.3844984658050D-04
   252  2.5100000000000D+00 -1.8177175326020D-03 -4.1779897524934D-04
   253  2.5200000000000D+00 -1.4429183843631D-03 -3.1858679581014D-04
   254  2.5300000000000D+00 -1.1288800258969D-03 -2.3817219631715D-04
   255  2.5400000000000D+00 -8.6886630995510D-04 -1.7406910744559D-04
   256  2.5500000000000D+00 -6.5647080377821D-04 -1.2395215082127D-04
   257  2.5600000000000D+00 -4.8563544216329D-04 -8.5661716063994D-05
   258  2.5700000000000D+00 -3.5066747758484D-04 -5.7208436286051D-05
   259  2.5800000000000D+00 -2.4625442379467D-04 -3.6777103351255D-05
   260  2.5900000000000D+00 -1.6748583213670D-04 -2.2739262594279D-05
   261  2.6000000000000D+00 -1.0983358028862D-04 -1.3621978774080D-05
   262  2.6100000000000D+00 -6.9193544015096D-05 -8.1448585845483D-06
   263  2.6200000000000D+00 -4.1843028525670D-05 -5.1895633216670D-06
   264  2.6300000000000D+00 -2.4624017072884D-05 -3.9132984081455D-06
   265  2.6400000000000D+00 -1.4784310886191D-05 -3.6435066424888D-06
   266  2.6500000000000D+00 -1.0122619097347D-05 -3.9214958702184D-06
   267  2.6600000000000D+00 -8.3886282202254D-06 -4.2462829976417D-06
   268  2.6700000000000D+00 -7.6617895518538D-06 -4.2131551729567D-06
   269  2.6800000000000D+00 -6.3673110956087D-06 -3.5095801132517D-06
   270  2.6900000000000D+00 -4.0934460696591D-06 -2.2255942166746D-06
   271  2.7000000000000D+00 -1.5862886074859D-06 -8.4379544254579D-07
   272  2.7100000000000D+00  2.8888661205643D-07  1.6388945020121D-07
   273  2.7200000000000D+00  7.7625612552244D-07  4.3902697919738D-07
   274  2.7300000000000D+00  5.4974360502328D-07  3.0968015191767D-07
   275  2.7400000000000D+00 -4.8681193536951D-09 -2.9458053701571D-09
   276  2.7500000000000D+00 -1.4158573600852D-07 -8.6110655497197D-08
   277  2.7600000000000D+00 -1.4016995899069D-07 -8.5611961052114D-08
   278  2.7700000000000D+00 -3.4897376337809D-08 -2.1391465489918D-08
   279  2.7800000000000D+00  1.4395947258978D-08  7.9249192380872D-09
   280  2.7900000000000D+00  2.0272966588281D-08  1.1160198077856D-08
   281  2.8000000000000D+00  1.0251814224426D-08  5.6435883176622D-09
   282  2.8100000000000D+00  0.0000000000000D+00  0.0000000000000D+00
   283  2.8200000000000D+00  0.0000000000000D+00  0.0000000000000D+00
   284  2.8300000000000D+00  0.0000000000000D+00  0.0000000000000D+00
   285  2.8400000000000D+00  0.0000000000000D+00  0.0000000000000D+00
   286  2.8500000000000D+00  0.0000000000000D+00  0.0000000000000D+00
   287  2.8600000000000D+00  0.0000000000000D+00  0.0000000000000D+00
   288  2.8700000000000D+00  0.0000000000000D+00  0.0000000000000D+00
   289  2.8800000000000D+00  0.0000000000000D+00  0.0000000000000D+00
   290  2.8900000000000D+00  0.0000000000000D+00  0.0000000000000D+00
   291  2.9000000000000D+00  0.0000000000000D+00  0.0000000000000D+00
   292  2.9100000000000D+00  0.0000000000000D+00  0.0000000000000D+00
   293  2.9200000000000D+00  0.0000000000000D+00  0.0000000000000D+00
   294  2.9300000000000D+00  0.0000000000000D+00  0.0000000000000D+00
   295  2.9400000000000D+00  0.0000000000000D+00  0.0000000000000D+00
   296  2.9500000000000D+00  0.0000000000000D+00  0.0000000000000D+00
   297  2.9600000000000D+00  0.0000000000000D+00  0.0000000000000D+00
   298  2.9700000000000D+00  0.0000000000000D+00  0.0000000000000D+00
   299  2.9800000000000D+00  0.0000000000000D+00  0.0000000000000D+00
   300  2.9900000000000D+00  0.0000000000000D+00  0.0000000000000D+00
   301  3.0000000000000D+00  0.0000000000000D+00  0.0000000000000D+00
   302  3.0100000000000D+00  0.0000000000000D+00  0.0000000000000D+00
   303  3.0200000000000D+00  0.0000000000000D+00  0.0000000000000D+00
   304  3.0300000000000D+00  0.0000000000000D+00  0.0000000000000D+00
   305  3.0400000000000D+00  0.0000000000000D+00  0.0000000000000D+00
   306  3.0500000000000D+00  0.0000000000000D+00  0.0000000000000D+00
   307  3.0600000000000D+00  0.0000000000000D+00  0.0000000000000D+00
   308  3.0700000000000D+00  0.0000000000000D+00  0.0000000000000D+00
   309  3.0800000000000D+00  0.0000000000000D+00  0.0000000000000D+00
   310  3.0900000000000D+00  0.0000000000000D+00  0.0000000000000D+00
   311  3.1000000000000D+00  0.0000000000000D+00  0.0000000000000D+00
   312  3.1100000000000D+00  0.0000000000000D+00  0.0000000000000D+00
   313  3.1200000000000D+00  0.0000000000000D+00  0.0000000000000D+00
   314  3.1300000000000D+00  0.0000000000000D+00  0.0000000000000D+00
   315  3.1400000000000D+00  0.0000000000000D+00  0.0000000000000D+00
   316  3.1500000000000D+00  0.0000000000000D+00  0.0000000000000D+00
   317  3.1600000000000D+00  0.0000000000000D+00  0.0000000000000D+00
   318  3.1700000000000D+00  0.0000000000000D+00  0.0000000000000D+00
   319  3.1800000000000D+00  0.0000000000000D+00  0.0000000000000D+00
   320  3.1900000000000D+00  0.0000000000000D+00  0.0000000000000D+00
   321  3.2000000000000D+00  0.0000000000000D+00  0.0000000000000D+00
   322  3.2100000000000D+00  0.0000000000000D+00  0.0000000000000D+00
   323  3.2200000000000D+00  0.0000000000000D+00  0.0000000000000D+00
   324  3.2300000000000D+00  0.0000000000000D+00  0.0000000000000D+00
   325  3.2400000000000D+00  0.0000000000000D+00  0.0000000000000D+00
   326  3.2500000000000D+00  0.0000000000000D+00  0.0000000000000D+00
   327  3.2600000000000D+00  0.0000000000000D+00  0.0000000000000D+00
   328  3.2700000000000D+00  0.0000000000000D+00  0.0000000000000D+00
   329  3.2800000000000D+00  0.0000000000000D+00  0.0000000000000D+00
   330  3.2900000000000D+00  0.0000000000000D+00  0.0000000000000D+00
   331  3.3000000000000D+00  0.0000000000000D+00  0.0000000000000D+00
   332  3.3100000000000D+00  0.0000000000000D+00  0.0000000000000D+00
   333  3.3200000000000D+00  0.0000000000000D+00  0.0000000000000D+00
   334  3.3300000000000D+00  0.0000000000000D+00  0.0000000000000D+00
   335  3.3400000000000D+00  0.0000000000000D+00  0.0000000000000D+00
   336  3.3500000000000D+00  0.0000000000000D+00  0.0000000000000D+00
   337  3.3600000000000D+00  0.0000000000000D+00  0.0000000000000D+00
   338  3.3700000000000D+00  0.0000000000000D+00  0.0000000000000D+00
   339  3.3800000000000D+00  0.0000000000000D+00  0.0000000000000D+00
   340  3.3900000000000D+00  0.0000000000000D+00  0.0000000000000D+00
   341  3.4000000000000D+00  0.0000000000000D+00  0.0000000000000D+00
   342  3.4100000000000D+00  0.0000000000000D+00  0.0000000000000D+00
   343  3.4200000000000D+00  0.0000000000000D+00  0.0000000000000D+00
   344  3.4300000000000D+00  0.0000000000000D+00  0.0000000000000D+00
   345  3.4400000000000D+00  0.0000000000000D+00  0.0000000000000D+00
   346  3.4500000000000D+00  0.0000000000000D+00  0.0000000000000D+00
   347  3.4600000000000D+00  0.0000000000000D+00  0.0000000000000D+00
   348  3.4700000000000D+00  0.0000000000000D+00  0.0000000000000D+00
   349  3.4800000000000D+00  0.0000000000000D+00  0.0000000000000D+00
   350  3.4900000000000D+00  0.0000000000000D+00  0.0000000000000D+00
   351  3.5000000000000D+00  0.0000000000000D+00  0.0000000000000D+00
   352  3.5100000000000D+00  0.0000000000000D+00  0.0000000000000D+00
   353  3.5200000000000D+00  0.0000000000000D+00  0.0000000000000D+00
   354  3.5300000000000D+00  0.0000000000000D+00  0.0000000000000D+00
   355  3.5400000000000D+00  0.0000000000000D+00  0.0000000000000D+00
   356  3.5500000000000D+00  0.0000000000000D+00  0.0000000000000D+00
   357  3.5600000000000D+00  0.0000000000000D+00  0.0000000000000D+00
   358  3.5700000000000D+00  0.0000000000000D+00  0.0000000000000D+00
   359  3.5800000000000D+00  0.0000000000000D+00  0.0000000000000D+00
   360  3.5900000000000D+00  0.0000000000000D+00  0.0000000000000D+00
   361  3.6000000000000D+00  0.0000000000000D+00  0.0000000000000D+00
   362  3.6100000000000D+00  0.0000000000000D+00  0.0000000000000D+00
   363  3.6200000000000D+00  0.0000000000000D+00  0.0000000000000D+00
   364  3.6300000000000D+00  0.0000000000000D+00  0.0000000000000D+00
   365  3.6400000000000D+00  0.0000000000000D+00  0.0000000000000D+00
   366  3.6500000000000D+00  0.0000000000000D+00  0.0000000000000D+00
   367  3.6600000000000D+00  0.0000000000000D+00  0.0000000000000D+00
   368  3.6700000000000D+00  0.0000000000000D+00  0.0000000000000D+00
   369  3.6800000000000D+00  0.0000000000000D+00  0.0000000000000D+00
   370  3.6900000000000D+00  0.0000000000000D+00  0.0000000000000D+00
   371  3.7000000000000D+00  0.0000000000000D+00  0.0000000000000D+00
   372  3.7100000000000D+00  0.0000000000000D+00  0.0000000000000D+00
   373  3.7200000000000D+00  0.0000000000000D+00  0.0000000000000D+00
   374  3.7300000000000D+00  0.0000000000000D+00  0.0000000000000D+00
   375  3.7400000000000D+00  0.0000000000000D+00  0.0000000000000D+00
   376  3.7500000000000D+00  0.0000000000000D+00  0.0000000000000D+00
   377  3.7600000000000D+00  0.0000000000000D+00  0.0000000000000D+00
   378  3.7700000000000D+00  0.0000000000000D+00  0.0000000000000D+00
   379  3.7800000000000D+00  0.0000000000000D+00  0.0000000000000D+00
   380  3.7900000000000D+00  0.0000000000000D+00  0.0000000000000D+00
   381  3.8000000000000D+00  0.0000000000000D+00  0.0000000000000D+00
   382  3.8100000000000D+00  0.0000000000000D+00  0.0000000000000D+00
   383  3.8200000000000D+00  0.0000000000000D+00  0.0000000000000D+00
   384  3.8300000000000D+00  0.0000000000000D+00  0.0000000000000D+00
   385  3.8400000000000D+00  0.0000000000000D+00  0.0000000000000D+00
   386  3.8500000000000D+00  0.0000000000000D+00  0.0000000000000D+00
   387  3.8600000000000D+00  0.0000000000000D+00  0.0000000000000D+00
   388  3.8700000000000D+00  0.0000000000000D+00  0.0000000000000D+00
   389  3.8800000000000D+00  0.0000000000000D+00  0.0000000000000D+00
   390  3.8900000000000D+00  0.0000000000000D+00  0.0000000000000D+00
   391  3.9000000000000D+00  0.0000000000000D+00  0.0000000000000D+00
   392  3.9100000000000D+00  0.0000000000000D+00  0.0000000000000D+00
   393  3.9200000000000D+00  0.0000000000000D+00  0.0000000000000D+00
   394  3.9300000000000D+00  0.0000000000000D+00  0.0000000000000D+00
   395  3.9400000000000D+00  0.0000000000000D+00  0.0000000000000D+00
   396  3.9500000000000D+00  0.0000000000000D+00  0.0000000000000D+00
   397  3.9600000000000D+00  0.0000000000000D+00  0.0000000000000D+00
   398  3.9700000000000D+00  0.0000000000000D+00  0.0000000000000D+00
   399  3.9800000000000D+00  0.0000000000000D+00  0.0000000000000D+00
   400  3.9900000000000D+00  0.0000000000000D+00  0.0000000000000D+00
   401  4.0000000000000D+00  0.0000000000000D+00  0.0000000000000D+00
   402  4.0100000000000D+00  0.0000000000000D+00  0.0000000000000D+00
   403  4.0200000000000D+00  0.0000000000000D+00  0.0000000000000D+00
   404  4.0300000000000D+00  0.0000000000000D+00  0.0000000000000D+00
   405  4.0400000000000D+00  0.0000000000000D+00  0.0000000000000D+00
   406  4.0500000000000D+00  0.0000000000000D+00  0.0000000000000D+00
   407  4.0600000000000D+00  0.0000000000000D+00  0.0000000000000D+00
   408  4.0700000000000D+00  0.0000000000000D+00  0.0000000000000D+00
   409  4.0800000000000D+00  0.0000000000000D+00  0.0000000000000D+00
   410  4.0900000000000D+00  0.0000000000000D+00  0.0000000000000D+00
   411  4.1000000000000D+00  0.0000000000000D+00  0.0000000000000D+00
   412  4.1100000000000D+00  0.0000000000000D+00  0.0000000000000D+00
   413  4.1200000000000D+00  0.0000000000000D+00  0.0000000000000D+00
   414  4.1300000000000D+00  0.0000000000000D+00  0.0000000000000D+00
   415  4.1400000000000D+00  0.0000000000000D+00  0.0000000000000D+00
   416  4.1500000000000D+00  0.0000000000000D+00  0.0000000000000D+00
   417  4.1600000000000D+00  0.0000000000000D+00  0.0000000000000D+00
   418  4.1700000000000D+00  0.0000000000000D+00  0.0000000000000D+00
   419  4.1800000000000D+00  0.0000000000000D+00  0.0000000000000D+00
   420  4.1900000000000D+00  0.0000000000000D+00  0.0000000000000D+00
   421  4.2000000000000D+00  0.0000000000000D+00  0.0000000000000D+00
   422  4.2100000000000D+00  0.0000000000000D+00  0.0000000000000D+00
   423  4.2200000000000D+00  0.0000000000000D+00  0.0000000000000D+00