As    ONCVPSP-3.3.1  r_core=   2.94957   2.03781   2.94957
     33.0000      5.0000      210904    zatom,zion,pspd
     8      11   2     4   600     0    pspcod,pspxc,lmax,lloc,mmax,r2well
  5.99000000  0.00000000  0.00000000    rchrg fchrg qchrg
     2     3     3     0    nproj
     3     1           extension_switch
     4     4     0    nprojso
   0                         5.9955314426566D-01  4.5060244049187D+00
     1  0.0000000000000D+00 -1.6426773136180D-12  7.4551476103579D-13
     2  1.0000000000000D-02 -1.4082380727458D-03  2.6262223665293D-02
     3  2.0000000000000D-02 -2.8311113551264D-03  5.2517234999102D-02
     4  3.0000000000000D-02 -4.2831735136052D-03  7.8757799603084D-02
     5  4.0000000000000D-02 -5.7788153753241D-03  1.0497663903327D-01
     6  5.0000000000000D-02 -7.3321841255958D-03  1.3116640899725D-01
     7  6.0000000000000D-02 -8.9571032448656D-03  1.5731967781493D-01
     8  7.0000000000000D-02 -1.0666993429798D-02  1.8342890522973D-01
     9  8.0000000000000D-02 -1.2474794741501D-02  2.0948642165653D-01
    10  9.0000000000000D-02 -1.4392890221959D-02  2.3548440795176D-01
    11  1.0000000000000D-01 -1.6433031217262D-02  2.6141487578973D-01
    12  1.1000000000000D-01 -1.8606264643387D-02  2.8726964872825D-01
    13  1.2000000000000D-01 -2.0922862427015D-02  3.1304034404490D-01
    14  1.3000000000000D-01 -2.3392253350138D-02  3.3871835542393D-01
    15  1.4000000000000D-01 -2.6022957522995D-02  3.6429483657145D-01
    16  1.5000000000000D-01 -2.8822523705209D-02  3.8976068583516D-01
    17  1.6000000000000D-01 -3.1797469689912D-02  4.1510653190196D-01
    18  1.7000000000000D-01 -3.4953225960016D-02  4.4032272064497D-01
    19  1.8000000000000D-01 -3.8294082819493D-02  4.6539930318838D-01
    20  1.9000000000000D-01 -4.1823141196145D-02  4.9032602525609D-01
    21  2.0000000000000D-01 -4.5542267304895D-02  5.1509231786698D-01
    22  2.1000000000000D-01 -4.9452051353033D-02  5.3968728943634D-01
    23  2.2000000000000D-01 -5.3551770460619D-02  5.6409971933987D-01
    24  2.3000000000000D-01 -5.7839355960208D-02  5.8831805299284D-01
    25  2.4000000000000D-01 -6.2311365230923D-02  6.1233039849347D-01
    26  2.5000000000000D-01 -6.6962958211700D-02  6.3612452487542D-01
    27  2.6000000000000D-01 -7.1787878728030D-02  6.5968786201039D-01
    28  2.7000000000000D-01 -7.6778440755492D-02  6.8300750219731D-01
    29  2.8000000000000D-01 -8.1925519731511D-02  7.0607020347042D-01
    30  2.9000000000000D-01 -8.7218549014562D-02  7.2886239465344D-01
    31  3.0000000000000D-01 -9.2645521577103D-02  7.5137018218274D-01
    32  3.1000000000000D-01 -9.8192997005236D-02  7.7357935871710D-01
    33  3.2000000000000D-01 -1.0384611386400D-01  7.9547541354666D-01
    34  3.3000000000000D-01 -1.0958860747277D-01  8.1704354480837D-01
    35  3.4000000000000D-01 -1.1540283311995D-01  8.3826867350984D-01
    36  3.5000000000000D-01 -1.2126979473132D-01  8.5913545935818D-01
    37  3.6000000000000D-01 -1.2716917898952D-01  8.7962831838437D-01
    38  3.7000000000000D-01 -1.3307939488640D-01  8.9973144234839D-01
    39  3.8000000000000D-01 -1.3897761867284D-01  9.1942881990431D-01
    40  3.9000000000000D-01 -1.4483984415370D-01  9.3870425949870D-01
    41  4.0000000000000D-01 -1.5064093825771D-01  9.5754141396977D-01
    42  4.1000000000000D-01 -1.5635470179458D-01  9.7592380680859D-01
    43  4.2000000000000D-01 -1.6195393529365D-01  9.9383486003789D-01
    44  4.3000000000000D-01 -1.6741050979994D-01  1.0112579236577D+00
    45  4.4000000000000D-01 -1.7269544248532D-01  1.0281763066014D+00
    46  4.5000000000000D-01 -1.7777897691417D-01  1.0445733091385D+00
    47  4.6000000000000D-01 -1.8263066778447D-01  1.0604322566578D+00
    48  4.7000000000000D-01 -1.8721946994692D-01  1.0757365347534D+00
    49  4.8000000000000D-01 -1.9151383148640D-01  1.0904696255358D+00
    50  4.9000000000000D-01 -1.9548179063264D-01  1.1046151450806D+00
    51  5.0000000000000D-01 -1.9909107624842D-01  1.1181568819239D+00
    52  5.1000000000000D-01 -2.0230921162715D-01  1.1310788365072D+00
    53  5.2000000000000D-01 -2.0510362131399D-01  1.1433652614692D+00
    54  5.3000000000000D-01 -2.0744174064917D-01  1.1550007026785D+00
    55  5.4000000000000D-01 -2.0929112771528D-01  1.1659700408931D+00
    56  5.5000000000000D-01 -2.1061957735627D-01  1.1762585339321D+00
    57  5.6000000000000D-01 -2.1139523692043D-01  1.1858518592371D+00
    58  5.7000000000000D-01 -2.1158672336735D-01  1.1947361566990D+00
    59  5.8000000000000D-01 -2.1116324136465D-01  1.2028980716216D+00
    60  5.9000000000000D-01 -2.1009470199007D-01  1.2103247976891D+00
    61  6.0000000000000D-01 -2.0835184164311D-01  1.2170041198032D+00
    62  6.1000000000000D-01 -2.0590634076082D-01  1.2229244566514D+00
    63  6.2000000000000D-01 -2.0273094192503D-01  1.2280749028672D+00
    64  6.3000000000000D-01 -1.9879956694009D-01  1.2324452706383D+00
    65  6.4000000000000D-01 -1.9408743245564D-01  1.2360261306227D+00
    66  6.5000000000000D-01 -1.8857116370415D-01  1.2388088520247D+00
    67  6.6000000000000D-01 -1.8222890592033D-01  1.2407856416885D+00
    68  6.7000000000000D-01 -1.7504043300864D-01  1.2419495820635D+00
    69  6.8000000000000D-01 -1.6698725302486D-01  1.2422946678965D+00
    70  6.9000000000000D-01 -1.5805271004035D-01  1.2418158415079D+00
    71  7.0000000000000D-01 -1.4822208196077D-01  1.2405090265092D+00
    72  7.1000000000000D-01 -1.3748267387670D-01  1.2383711598218D+00
    73  7.2000000000000D-01 -1.2582390653037D-01  1.2354002218600D+00
    74  7.3000000000000D-01 -1.1323739949172D-01  1.2315952647421D+00
    75  7.4000000000000D-01 -9.9717048647408D-02  1.2269564383999D+00
    76  7.5000000000000D-01 -8.5259097618571D-02  1.2214850144587D+00
    77  7.6000000000000D-01 -6.9862202737559D-02  1.2151834077656D+00
    78  7.7000000000000D-01 -5.3527491229081D-02  1.2080551954486D+00
    79  7.8000000000000D-01 -3.6258612258993D-02  1.2001051333945D+00
    80  7.9000000000000D-01 -1.8061780533259D-02  1.1913391700410D+00
    81  8.0000000000000D-01  1.0541878498087D-03  1.1817644573819D+00
    82  8.1000000000000D-01  2.1077847568521D-02  1.1713893590967D+00
    83  8.2000000000000D-01  4.1995104518029D-02  1.1602234557169D+00
    84  8.3000000000000D-01  6.3789204746734D-02  1.1482775467554D+00
    85  8.4000000000000D-01  8.6440732086663D-02  1.1355636497297D+00
    86  8.5000000000000D-01  1.0992761464711D-01  1.1220949960213D+00
    87  8.6000000000000D-01  1.3422514031141D-01  1.1078860235202D+00
    88  8.7000000000000D-01  1.5930598134570D-01  1.0929523660165D+00
    89  8.8000000000000D-01  1.8514022819655D-01  1.0773108393070D+00
    90  8.9000000000000D-01  2.1169543252122D-01  1.0609794239991D+00
    91  9.0000000000000D-01  2.3893665946087D-01  1.0439772450024D+00
    92  9.1000000000000D-01  2.6682654913165D-01  1.0263245477084D+00
    93  9.2000000000000D-01  2.9532538727387D-01  1.0080426708739D+00
    94  9.3000000000000D-01  3.2439118496302D-01  9.8915401622917D-01
    95  9.4000000000000D-01  3.5397976725043D-01  9.6968201484836D-01
    96  9.5000000000000D-01  3.8404487056464D-01  9.4965109032825D-01
    97  9.6000000000000D-01  4.1453824866760D-01  9.2908661883356D-01
    98  9.7000000000000D-01  4.4540978692292D-01  9.0801488607923D-01
    99  9.8000000000000D-01  4.7660762459744D-01  8.8646304133067D-01
   100  9.9000000000000D-01  5.0807828488015D-01  8.6445904851522D-01
   101  1.0000000000000D+00  5.3976681226672D-01  8.4203163454914D-01
   102  1.0100000000000D+00  5.7161691692269D-01  8.1921023499552D-01
   103  1.0200000000000D+00  6.0357112560363D-01  7.9602493717991D-01
   104  1.0300000000000D+00  6.3557093867650D-01  7.7250642090111D-01
   105  1.0400000000000D+00  6.6755699275294D-01  7.4868589688534D-01
   106  1.0500000000000D+00  6.9946922841602D-01  7.2459504314161D-01
   107  1.0600000000000D+00  7.3124706248757D-01  7.0026593938717D-01
   108  1.0700000000000D+00  7.6282956425742D-01  6.7573099972059D-01
   109  1.0800000000000D+00  7.9415563506680D-01  6.5102290372925D-01
   110  1.0900000000000D+00  8.2516419061166D-01  6.2617452622760D-01
   111  1.1000000000000D+00  8.5579434531076D-01  6.0121886582870D-01
   112  1.1100000000000D+00  8.8598559805639D-01  5.7618897256186D-01
   113  1.1200000000000D+00  9.1567801864904D-01  5.5111787475410D-01
   114  1.1300000000000D+00  9.4481243419716D-01  5.2603850540104D-01
   115  1.1400000000000D+00  9.7333061474930D-01  5.0098362825772D-01
   116  1.1500000000000D+00  1.0011754574098D+00  4.7598576388574D-01
   117  1.1600000000000D+00  1.0282911681791D+00  4.5107711589779D-01
   118  1.1700000000000D+00  1.0546234407512D+00  4.2628949764411D-01
   119  1.1800000000000D+00  1.0801196314933D+00  4.0165425958844D-01
   120  1.1900000000000D+00  1.1047289298301D+00  3.7720221762432D-01
   121  1.2000000000000D+00  1.1284025232515D+00  3.5296358258371D-01
   122  1.2100000000000D+00  1.1510937561673D+00  3.2896789119058D-01
   123  1.2200000000000D+00  1.1727582818317D+00  3.0524393871332D-01
   124  1.2300000000000D+00  1.1933542065697D+00  2.8181971356869D-01
   125  1.2400000000000D+00  1.2128422255498D+00  2.5872233412764D-01
   126  1.2500000000000D+00  1.2311857493469D+00  2.3597798797430D-01
   127  1.2600000000000D+00  1.2483510205672D+00  2.1361187386355D-01
   128  1.2700000000000D+00  1.2643072198211D+00  1.9164814661893D-01
   129  1.2800000000000D+00  1.2790265603342D+00  1.7010986521263D-01
   130  1.2900000000000D+00  1.2924843705262D+00  1.4901894425932D-01
   131  1.3000000000000D+00  1.3046591639138D+00  1.2839610914927D-01
   132  1.3100000000000D+00  1.3155326956854D+00  1.0826085504819D-01
   133  1.3200000000000D+00  1.3250900053687D+00  8.8631409973393D-02
   134  1.3300000000000D+00  1.3333194450246D+00  6.9524702150956D-02
   135  1.3400000000000D+00  1.3402126924007D+00  5.0956331860578D-02
   136  1.3500000000000D+00  1.3457647485746D+00  3.2940547947529D-02
   137  1.3600000000000D+00  1.3499739196055D+00  1.5490229184997D-02
   138  1.3700000000000D+00  1.3528417817406D+00 -1.3831293376785D-03
   139  1.3800000000000D+00  1.3543731298325D+00 -1.7669424655923D-02
   140  1.3900000000000D+00  1.3545759085586D+00 -3.3359949036450D-02
   141  1.4000000000000D+00  1.3534611261592D+00 -4.8447387621198D-02
   142  1.4100000000000D+00  1.3510427504419D+00 -6.2925810490010D-02
   143  1.4200000000000D+00  1.3473375867519D+00 -7.6790659008639D-02
   144  1.4300000000000D+00  1.3423651378196D+00 -9.0038726390391D-02
   145  1.4400000000000D+00  1.3361474452531D+00 -1.0266813235813D-01
   146  1.4500000000000D+00  1.3287089126217D+00 -1.1467829184499D-01
   147  1.4600000000000D+00  1.3200761100918D+00 -1.2606987767800D-01
   148  1.4700000000000D+00  1.3102775605163D+00 -1.3684477716941D-01
   149  1.4800000000000D+00  1.2993435071476D+00 -1.4700604262291D-01
   150  1.4900000000000D+00  1.2873056628821D+00 -1.5655783568204D-01
   151  1.5000000000000D+00  1.2741969413008D+00 -1.6550536555675D-01
   152  1.5100000000000D+00  1.2600511695617D+00 -1.7385482110140D-01
   153  1.5200000000000D+00  1.2449027790121D+00 -1.8161329644493D-01
   154  1.5300000000000D+00  1.2287865038383D+00 -1.8878871245304D-01
   155  1.5400000000000D+00  1.2117369684712D+00 -1.9538972454869D-01
   156  1.5500000000000D+00  1.1937885491451D+00 -2.0142564966833D-01
   157  1.5600000000000D+00  1.1749746859869D+00 -2.0690633919348D-01
   158  1.5700000000000D+00  1.1553273112537D+00 -2.1184206811214D-01
   159  1.5800000000000D+00  1.1348780095452D+00 -2.1624353406696D-01
   160  1.5900000000000D+00  1.1136588231377D+00 -2.2012184850154D-01
   161  1.6000000000000D+00  1.0917034463852D+00 -2.2348860859512D-01
   162  1.6100000000000D+00  1.0690479434214D+00 -2.2635593126798D-01
   163  1.6200000000000D+00  1.0457301321191D+00 -2.2873640511195D-01
   164  1.6300000000000D+00  1.0217894335447D+00 -2.3064307303358D-01
   165  1.6400000000000D+00  9.9726682017166D-01 -2.3208941375354D-01
   166  1.6500000000000D+00  9.7220462260076D-01 -2.3308931564484D-01
   167  1.6600000000000D+00  9.4664638548612D-01 -2.3365705122238D-01
   168  1.6700000000000D+00  9.2063670395443D-01 -2.3380724883263D-01
   169  1.6800000000000D+00  8.9422106219161D-01 -2.3355486295554D-01
   170  1.6900000000000D+00  8.6744567209868D-01 -2.3291514314705D-01
   171  1.7000000000000D+00  8.4035731249887D-01 -2.3190360179689D-01
   172  1.7100000000000D+00  8.1300317012353D-01 -2.3053598095902D-01
   173  1.7200000000000D+00  7.8543068270458D-01 -2.2882821840785D-01
   174  1.7300000000000D+00  7.5768738509306D-01 -2.2679641317507D-01
   175  1.7400000000000D+00  7.2982075870027D-01 -2.2445679070354D-01
   176  1.7500000000000D+00  7.0187808485923D-01 -2.2182566784425D-01
   177  1.7600000000000D+00  6.7390630244291D-01 -2.1891941783261D-01
   178  1.7700000000000D+00  6.4595187005810D-01 -2.1575443541877D-01
   179  1.7800000000000D+00  6.1806063321237D-01 -2.1234710230615D-01
   180  1.7900000000000D+00  5.9027769654609D-01 -2.0871375300415D-01
   181  1.8000000000000D+00  5.6264730158210D-01 -2.0487064128163D-01
   182  1.8100000000000D+00  5.3521270992052D-01 -2.0083390724975D-01
   183  1.8200000000000D+00  5.0801609237671D-01 -1.9661954530272D-01
   184  1.8300000000000D+00  4.8109842385536D-01 -1.9224337286434D-01
   185  1.8400000000000D+00  4.5449938450772D-01 -1.8772100021269D-01
   186  1.8500000000000D+00  4.2825726685311D-01 -1.8306780126228D-01
   187  1.8600000000000D+00  4.0240888942510D-01 -1.7829888559217D-01
   188  1.8700000000000D+00  3.7698951660515D-01 -1.7342907158852D-01
   189  1.8800000000000D+00  3.5203278509365D-01 -1.6847286093137D-01
   190  1.8900000000000D+00  3.2757063679920D-01 -1.6344441435864D-01
   191  1.9000000000000D+00  3.0363325837146D-01 -1.5835752882807D-01
   192  1.9100000000000D+00  2.8024902736425D-01 -1.5322561610375D-01
   193  1.9200000000000D+00  2.5744446494794D-01 -1.4806168276278D-01
   194  1.9300000000000D+00  2.3524419545704D-01 -1.4287831175810D-01
   195  1.9400000000000D+00  2.1367091229510D-01 -1.3768764539908D-01
   196  1.9500000000000D+00  1.9274535078289D-01 -1.3250136997762D-01
   197  1.9600000000000D+00  1.7248626726543D-01 -1.2733070184478D-01
   198  1.9700000000000D+00  1.5291042496183D-01 -1.2218637512025D-01
   199  1.9800000000000D+00  1.3403258614415D-01 -1.1707863093548D-01
   200  1.9900000000000D+00  1.1586551063068D-01 -1.1201720823320D-01
   201  2.0000000000000D+00  9.8419960714012D-02 -1.0701133618633D-01
   202  2.0100000000000D+00  8.1704711868757D-02 -1.0206972807181D-01
   203  2.0200000000000D+00  6.5726569845259D-02 -9.7200576800883D-02
   204  2.0300000000000D+00  5.0490393230713D-02 -9.2411551868123D-02
   205  2.0400000000000D+00  3.5999121872612D-02 -8.7709797858082D-02
   206  2.0500000000000D+00  2.2253810746117D-02 -8.3101934415982D-02
   207  2.0600000000000D+00  9.2536689233839D-03 -7.8594057610835D-02
   208  2.0700000000000D+00 -3.0038961095620D-03 -7.4191742787508D-02
   209  2.0800000000000D+00 -1.4523229648771D-02 -6.9900048686162D-02
   210  2.0900000000000D+00 -2.5310376118052D-02 -6.5723522962080D-02
   211  2.1000000000000D+00 -3.5373021200528D-02 -6.1666208946581D-02
   212  2.1100000000000D+00 -4.4720429968841D-02 -5.7731653614509D-02
   213  2.1200000000000D+00 -5.3363381025950D-02 -5.3922916786484D-02
   214  2.1300000000000D+00 -6.1314097377617D-02 -5.0242581371498D-02
   215  2.1400000000000D+00 -6.8586173895043D-02 -4.6692764734010D-02
   216  2.1500000000000D+00 -7.5194501933227D-02 -4.3275131033904D-02
   217  2.1600000000000D+00 -8.1155191377648D-02 -3.9990904486664D-02
   218  2.1700000000000D+00 -8.6485490278138D-02 -3.6840883541177D-02
   219  2.1800000000000D+00 -9.1203702579032D-02 -3.3825455818336D-02
   220  2.1900000000000D+00 -9.5329104133901D-02 -3.0944613816763D-02
   221  2.2000000000000D+00 -9.8881857366166D-02 -2.8197971286012D-02
   222  2.2100000000000D+00 -1.0188292486281D-01 -2.5584780187939D-02
   223  2.2200000000000D+00 -1.0435398231662D-01 -2.3103948204366D-02
   224  2.2300000000000D+00 -1.0631733096464D-01 -2.0754056700467D-02
   225  2.2400000000000D+00 -1.0779580997456D-01 -1.8533379077783D-02
   226  2.2500000000000D+00 -1.0881270913793D-01 -1.6439899439310D-02
   227  2.2600000000000D+00 -1.0939168183124D-01 -1.4471331532622D-02
   228  2.2700000000000D+00 -1.0955665908666D-01 -1.2625137836659D-02
   229  2.2800000000000D+00 -1.0933176466570D-01 -1.0898548774182D-02
   230  2.2900000000000D+00 -1.0874123128628D-01 -9.2885820059079D-03
   231  2.3000000000000D+00 -1.0780931900829D-01 -7.7920616258434D-03
   232  2.3100000000000D+00 -1.0656023511306D-01 -6.4056373419110D-03
   233  2.3200000000000D+00 -1.0501805625393D-01 -5.1258034938881D-03
   234  2.3300000000000D+00 -1.0320665338289D-01 -3.9489178012382D-03
   235  2.3400000000000D+00 -1.0114961875809D-01 -2.8712199446130D-03
   236  2.3500000000000D+00 -9.8870196249449D-02 -1.8888497480222D-03
   237  2.3600000000000D+00 -9.6391214875217D-02 -9.9786495040533D-04
   238  2.3700000000000D+00 -9.3735024603157D-02 -1.9425875262579D-04
   239  2.3800000000000D+00 -9.0923436963370D-02  5.2602339885531D-04
   240  2.3900000000000D+00 -8.7977668580017D-02  1.1670674022486D-03
   241  2.4000000000000D+00 -8.4918288749494D-02  1.7329747603355D-03
   242  2.4100000000000D+00 -8.1765170316288D-02  2.2278472517808D-03
   243  2.4200000000000D+00 -7.8537444764315D-02  2.6557723335279D-03
   244  2.4300000000000D+00 -7.5253459740174D-02  3.0208088309255D-03
   245  2.4400000000000D+00 -7.1930744646593D-02  3.3269742359410D-03
   246  2.4500000000000D+00 -6.8585978244100D-02  3.5782322340059D-03
   247  2.4600000000000D+00 -6.5234961323031D-02  3.7784811811093D-03
   248  2.4700000000000D+00 -6.1892591802600D-02  3.9315428695351D-03
   249  2.4800000000000D+00 -5.8572844500269D-02  4.0411522014557D-03
   250  2.4900000000000D+00 -5.5288754897318D-02  4.1109475861863D-03
   251  2.5000000000000D+00 -5.2052409767687D-02  4.1444627492333D-03
   252  2.5100000000000D+00 -4.8874940070164D-02  4.1451189050534D-03
   253  2.5200000000000D+00 -4.5766518370077D-02  4.1162178244238D-03
   254  2.5300000000000D+00 -4.2736360213753D-02  4.0609356607329D-03
   255  2.5400000000000D+00 -3.9792729140854D-02  3.9823175140681D-03
   256  2.5500000000000D+00 -3.6942945661688D-02  3.8832728020784D-03
   257  2.5600000000000D+00 -3.4193400864416D-02  3.7665716069954D-03
   258  2.5700000000000D+00 -3.1549572657658D-02  3.6348415615033D-03
   259  2.5800000000000D+00 -2.9016045657218D-02  3.4905655170321D-03
   260  2.5900000000000D+00 -2.6596535024606D-02  3.3360800799203D-03
   261  2.6000000000000D+00 -2.4293912776637D-02  3.1735746920095D-03
   262  2.6100000000000D+00 -2.2110237032789D-02  3.0050913769654D-03
   263  2.6200000000000D+00 -2.0046784703056D-02  2.8325252896242D-03
   264  2.6300000000000D+00 -1.8104086194852D-02  2.6576257472342D-03
   265  2.6400000000000D+00 -1.6281962314727D-02  2.4819977970435D-03
   266  2.6500000000000D+00 -1.4579563974247D-02  2.3071044976105D-03
   267  2.6600000000000D+00 -1.2995413392495D-02  2.1342696032125D-03
   268  2.6700000000000D+00 -1.1527446794153D-02  1.9646806565363D-03
   269  2.6800000000000D+00 -1.0173059065986D-02  1.7993926640871D-03
   270  2.6900000000000D+00 -8.9291493217992D-03  1.6393320754659D-03
   271  2.7000000000000D+00 -7.7921674685532D-03  1.4853010907311D-03
   272  2.7100000000000D+00 -6.7581615663964D-03  1.3379823369693D-03
   273  2.7200000000000D+00 -5.8228256099152D-03  1.1979437759569D-03
   274  2.7300000000000D+00 -4.9815477643025D-03  1.0656438523962D-03
   275  2.7400000000000D+00 -4.2294583710393D-03  9.4143680533035D-04
   276  2.7500000000000D+00 -3.5614776987486D-03  8.2557811107355D-04
   277  2.7600000000000D+00 -2.9723635407658D-03  7.1823006154928D-04
   278  2.7700000000000D+00 -2.4567580305470D-03  6.1946738511871D-04
   279  2.7800000000000D+00 -2.0092331037558D-03  5.2928281687411D-04
   280  2.7900000000000D+00 -1.6243351581787D-03  4.4759268917863D-04
   281  2.8000000000000D+00 -1.2966290706538D-03  3.7424257432828D-04
   282  2.8100000000000D+00 -1.0207391466772D-03  3.0901257374968D-04
   283  2.8200000000000D+00 -7.9138905482381D-04  2.5162258558487D-04
   284  2.8300000000000D+00 -6.0344086052235D-04  2.0173758005148D-04
   285  2.8400000000000D+00 -4.5193023522419D-04  1.5897236787371D-04
   286  2.8500000000000D+00 -3.3212027611756D-04  1.2289977817951D-04
   287  2.8600000000000D+00 -2.3948741010541D-04  9.3047130542307D-05
   288  2.8700000000000D+00 -1.6972529624728D-04  6.8896005396058D-05
   289  2.8800000000000D+00 -1.1886991218448D-04  4.9903333755983D-05
   290  2.8900000000000D+00 -8.2965019944375D-05  3.5381149041520D-05
   291  2.9000000000000D+00 -5.9321770479442D-05  2.4940411776924D-05
   292  2.9100000000000D+00 -4.5179004377369D-05  1.8014544538279D-05
   293  2.9200000000000D+00 -3.8600048949831D-05  1.4208835102711D-05
   294  2.9300000000000D+00 -3.6510012134908D-05  1.2537924656073D-05
   295  2.9400000000000D+00 -3.5196310485094D-05  1.1639035366393D-05
   296  2.9500000000000D+00 -3.2085088100203D-05  1.0494600912459D-05
   297  2.9600000000000D+00 -2.3804815891748D-05  7.7328958187817D-06
   298  2.9700000000000D+00 -1.3760633574210D-05  4.4638162443385D-06
   299  2.9800000000000D+00 -4.0333974463181D-06  1.3100625743406D-06
   300  2.9900000000000D+00  1.9718057728600D-06 -6.2832008601366D-07
   301  3.0000000000000D+00  3.4516356166909D-06 -1.0974414552868D-06
   302  3.0100000000000D+00  2.4248687175452D-06 -7.6976123852500D-07
   303  3.0200000000000D+00  1.8586376620390D-07 -5.8933119671117D-08
   304  3.0300000000000D+00 -5.9776558146230D-07  1.9042458719650D-07
   305  3.0400000000000D+00 -7.3125374134394D-07  2.3269390275645D-07
   306  3.0500000000000D+00 -3.8965339856100D-07  1.2387565666314D-07
   307  3.0600000000000D+00  2.6893746328683D-08 -8.8008195423670D-09
   308  3.0700000000000D+00  8.5539706625935D-08 -2.7992363448411D-08
   309  3.0800000000000D+00  8.2006202078416D-08 -2.6836044968464D-08
   310  3.0900000000000D+00  2.7069530409005D-08 -8.8583438437573D-09
   311  3.1000000000000D+00  0.0000000000000D+00  0.0000000000000D+00
   312  3.1100000000000D+00  0.0000000000000D+00  0.0000000000000D+00
   313  3.1200000000000D+00  0.0000000000000D+00  0.0000000000000D+00
   314  3.1300000000000D+00  0.0000000000000D+00  0.0000000000000D+00
   315  3.1400000000000D+00  0.0000000000000D+00  0.0000000000000D+00
   316  3.1500000000000D+00  0.0000000000000D+00  0.0000000000000D+00
   317  3.1600000000000D+00  0.0000000000000D+00  0.0000000000000D+00
   318  3.1700000000000D+00  0.0000000000000D+00  0.0000000000000D+00
   319  3.1800000000000D+00  0.0000000000000D+00  0.0000000000000D+00
   320  3.1900000000000D+00  0.0000000000000D+00  0.0000000000000D+00
   321  3.2000000000000D+00  0.0000000000000D+00  0.0000000000000D+00
   322  3.2100000000000D+00  0.0000000000000D+00  0.0000000000000D+00
   323  3.2200000000000D+00  0.0000000000000D+00  0.0000000000000D+00
   324  3.2300000000000D+00  0.0000000000000D+00  0.0000000000000D+00
   325  3.2400000000000D+00  0.0000000000000D+00  0.0000000000000D+00
   326  3.2500000000000D+00  0.0000000000000D+00  0.0000000000000D+00
   327  3.2600000000000D+00  0.0000000000000D+00  0.0000000000000D+00
   328  3.2700000000000D+00  0.0000000000000D+00  0.0000000000000D+00
   329  3.2800000000000D+00  0.0000000000000D+00  0.0000000000000D+00
   330  3.2900000000000D+00  0.0000000000000D+00  0.0000000000000D+00
   331  3.3000000000000D+00  0.0000000000000D+00  0.0000000000000D+00
   332  3.3100000000000D+00  0.0000000000000D+00  0.0000000000000D+00
   333  3.3200000000000D+00  0.0000000000000D+00  0.0000000000000D+00
   334  3.3300000000000D+00  0.0000000000000D+00  0.0000000000000D+00
   335  3.3400000000000D+00  0.0000000000000D+00  0.0000000000000D+00
   336  3.3500000000000D+00  0.0000000000000D+00  0.0000000000000D+00
   337  3.3600000000000D+00  0.0000000000000D+00  0.0000000000000D+00
   338  3.3700000000000D+00  0.0000000000000D+00  0.0000000000000D+00
   339  3.3800000000000D+00  0.0000000000000D+00  0.0000000000000D+00
   340  3.3900000000000D+00  0.0000000000000D+00  0.0000000000000D+00
   341  3.4000000000000D+00  0.0000000000000D+00  0.0000000000000D+00
   342  3.4100000000000D+00  0.0000000000000D+00  0.0000000000000D+00
   343  3.4200000000000D+00  0.0000000000000D+00  0.0000000000000D+00
   344  3.4300000000000D+00  0.0000000000000D+00  0.0000000000000D+00
   345  3.4400000000000D+00  0.0000000000000D+00  0.0000000000000D+00
   346  3.4500000000000D+00  0.0000000000000D+00  0.0000000000000D+00
   347  3.4600000000000D+00  0.0000000000000D+00  0.0000000000000D+00
   348  3.4700000000000D+00  0.0000000000000D+00  0.0000000000000D+00
   349  3.4800000000000D+00  0.0000000000000D+00  0.0000000000000D+00
   350  3.4900000000000D+00  0.0000000000000D+00  0.0000000000000D+00
   351  3.5000000000000D+00  0.0000000000000D+00  0.0000000000000D+00
   352  3.5100000000000D+00  0.0000000000000D+00  0.0000000000000D+00
   353  3.5200000000000D+00  0.0000000000000D+00  0.0000000000000D+00
   354  3.5300000000000D+00  0.0000000000000D+00  0.0000000000000D+00
   355  3.5400000000000D+00  0.0000000000000D+00  0.0000000000000D+00
   356  3.5500000000000D+00  0.0000000000000D+00  0.0000000000000D+00
   357  3.5600000000000D+00  0.0000000000000D+00  0.0000000000000D+00
   358  3.5700000000000D+00  0.0000000000000D+00  0.0000000000000D+00
   359  3.5800000000000D+00  0.0000000000000D+00  0.0000000000000D+00
   360  3.5900000000000D+00  0.0000000000000D+00  0.0000000000000D+00
   361  3.6000000000000D+00  0.0000000000000D+00  0.0000000000000D+00
   362  3.6100000000000D+00  0.0000000000000D+00  0.0000000000000D+00
   363  3.6200000000000D+00  0.0000000000000D+00  0.0000000000000D+00
   364  3.6300000000000D+00  0.0000000000000D+00  0.0000000000000D+00
   365  3.6400000000000D+00  0.0000000000000D+00  0.0000000000000D+00
   366  3.6500000000000D+00  0.0000000000000D+00  0.0000000000000D+00
   367  3.6600000000000D+00  0.0000000000000D+00  0.0000000000000D+00
   368  3.6700000000000D+00  0.0000000000000D+00  0.0000000000000D+00
   369  3.6800000000000D+00  0.0000000000000D+00  0.0000000000000D+00
   370  3.6900000000000D+00  0.0000000000000D+00  0.0000000000000D+00
   371  3.7000000000000D+00  0.0000000000000D+00  0.0000000000000D+00
   372  3.7100000000000D+00  0.0000000000000D+00  0.0000000000000D+00
   373  3.7200000000000D+00  0.0000000000000D+00  0.0000000000000D+00
   374  3.7300000000000D+00  0.0000000000000D+00  0.0000000000000D+00
   375  3.7400000000000D+00  0.0000000000000D+00  0.0000000000000D+00
   376  3.7500000000000D+00  0.0000000000000D+00  0.0000000000000D+00
   377  3.7600000000000D+00  0.0000000000000D+00  0.0000000000000D+00
   378  3.7700000000000D+00  0.0000000000000D+00  0.0000000000000D+00
   379  3.7800000000000D+00  0.0000000000000D+00  0.0000000000000D+00
   380  3.7900000000000D+00  0.0000000000000D+00  0.0000000000000D+00
   381  3.8000000000000D+00  0.0000000000000D+00  0.0000000000000D+00
   382  3.8100000000000D+00  0.0000000000000D+00  0.0000000000000D+00
   383  3.8200000000000D+00  0.0000000000000D+00  0.0000000000000D+00
   384  3.8300000000000D+00  0.0000000000000D+00  0.0000000000000D+00
   385  3.8400000000000D+00  0.0000000000000D+00  0.0000000000000D+00
   386  3.8500000000000D+00  0.0000000000000D+00  0.0000000000000D+00
   387  3.8600000000000D+00  0.0000000000000D+00  0.0000000000000D+00
   388  3.8700000000000D+00  0.0000000000000D+00  0.0000000000000D+00
   389  3.8800000000000D+00  0.0000000000000D+00  0.0000000000000D+00
   390  3.8900000000000D+00  0.0000000000000D+00  0.0000000000000D+00
   391  3.9000000000000D+00  0.0000000000000D+00  0.0000000000000D+00
   392  3.9100000000000D+00  0.0000000000000D+00  0.0000000000000D+00
   393  3.9200000000000D+00  0.0000000000000D+00  0.0000000000000D+00
   394  3.9300000000000D+00  0.0000000000000D+00  0.0000000000000D+00
   395  3.9400000000000D+00  0.0000000000000D+00  0.0000000000000D+00
   396  3.9500000000000D+00  0.0000000000000D+00  0.0000000000000D+00
   397  3.9600000000000D+00  0.0000000000000D+00  0.0000000000000D+00
   398  3.9700000000000D+00  0.0000000000000D+00  0.0000000000000D+00
   399  3.9800000000000D+00  0.0000000000000D+00  0.0000000000000D+00
   400  3.9900000000000D+00  0.0000000000000D+00  0.0000000000000D+00
   401  4.0000000000000D+00  0.0000000000000D+00  0.0000000000000D+00
   402  4.0100000000000D+00  0.0000000000000D+00  0.0000000000000D+00
   403  4.0200000000000D+00  0.0000000000000D+00  0.0000000000000D+00
   404  4.0300000000000D+00  0.0000000000000D+00  0.0000000000000D+00
   405  4.0400000000000D+00  0.0000000000000D+00  0.0000000000000D+00
   406  4.0500000000000D+00  0.0000000000000D+00  0.0000000000000D+00
   407  4.0600000000000D+00  0.0000000000000D+00  0.0000000000000D+00
   408  4.0700000000000D+00  0.0000000000000D+00  0.0000000000000D+00
   409  4.0800000000000D+00  0.0000000000000D+00  0.0000000000000D+00
   410  4.0900000000000D+00  0.0000000000000D+00  0.0000000000000D+00
   411  4.1000000000000D+00  0.0000000000000D+00  0.0000000000000D+00
   412  4.1100000000000D+00  0.0000000000000D+00  0.0000000000000D+00
   413  4.1200000000000D+00  0.0000000000000D+00  0.0000000000000D+00
   414  4.1300000000000D+00  0.0000000000000D+00  0.0000000000000D+00
   415  4.1400000000000D+00  0.0000000000000D+00  0.0000000000000D+00
   416  4.1500000000000D+00  0.0000000000000D+00  0.0000000000000D+00
   417  4.1600000000000D+00  0.0000000000000D+00  0.0000000000000D+00
   418  4.1700000000000D+00  0.0000000000000D+00  0.0000000000000D+00
   419  4.1800000000000D+00  0.0000000000000D+00  0.0000000000000D+00
   420  4.1900000000000D+00  0.0000000000000D+00  0.0000000000000D+00
   421  4.2000000000000D+00  0.0000000000000D+00  0.0000000000000D+00
   422  4.2100000000000D+00  0.0000000000000D+00  0.0000000000000D+00