As    ONCVPSP-3.3.1  r_core=   2.94957   2.03781   2.94957
     33.0000      5.0000      210904    zatom,zion,pspd
     8      11   2     4   600     0    pspcod,pspxc,lmax,lloc,mmax,r2well
  5.99000000  0.00000000  0.00000000    rchrg fchrg qchrg
     2     2     2     0     0    nproj
     1     1           extension_switch
   0                         4.5047396187124D+00  5.9954804873201D-01
     1  0.0000000000000D+00  7.0585204348106D-13 -1.5172724188162D-12
     2  1.0000000000000D-02  2.6268821677729D-02 -1.4104070291590D-03
     3  2.0000000000000D-02  5.2530418857149D-02 -2.8354376808317D-03
     4  3.0000000000000D-02  7.8777544992793D-02 -4.2896340575578D-03
     5  4.0000000000000D-02  1.0500290953294D-01 -5.7873754689495D-03
     6  5.0000000000000D-02  1.3119915613645D-01 -7.3427976523743D-03
     7  6.0000000000000D-02  1.5735884115305D-01 -8.9697127331234D-03
     8  7.0000000000000D-02  1.8347441245402D-01 -1.0681530168669D-02
     9  8.0000000000000D-02  2.0953818869953D-01 -1.2491178920093D-02
    10  9.0000000000000D-02  2.3554233912788D-01 -1.4411031091675D-02
    11  1.0000000000000D-01  2.6147886395095D-01 -1.6452827277268D-02
    12  1.1000000000000D-01  2.8733957543863D-01 -1.8627603849202D-02
    13  1.2000000000000D-01  3.1311607977382D-01 -2.0945622422176D-02
    14  1.3000000000000D-01  3.3879975975769D-01 -2.3416301720878D-02
    15  1.4000000000000D-01  3.6438175844310D-01 -2.6048152075839D-02
    16  1.5000000000000D-01  3.8985296377215D-01 -2.8848712767424D-02
    17  1.6000000000000D-01  4.1520399429140D-01 -3.1824492432666D-02
    18  1.7000000000000D-01  4.4042518601614D-01 -3.4980912744065D-02
    19  1.8000000000000D-01  4.6550658051206D-01 -3.8322255563246D-02
    20  1.9000000000000D-01  4.9043791426046D-01 -4.1851613765847D-02
    21  2.0000000000000D-01  5.1520860936950D-01 -4.5570845926684D-02
    22  2.1000000000000D-01  5.3980776569133D-01 -4.9480535046560D-02
    23  2.2000000000000D-01  5.6422415440123D-01 -5.3579951493796D-02
    24  2.3000000000000D-01  5.8844621309140D-01 -5.7867020324793D-02
    25  2.4000000000000D-01  6.1246204242853D-01 -6.2338293138349D-02
    26  2.5000000000000D-01  6.3625940441982D-01 -6.6988924608675D-02
    27  2.6000000000000D-01  6.5982572232862D-01 -7.1812653831287D-02
    28  2.7000000000000D-01  6.8314808227602D-01 -7.6801790605063D-02
    29  2.8000000000000D-01  7.0621323656064D-01 -8.1947206761706D-02
    30  2.9000000000000D-01  7.2900760872390D-01 -8.7238332641922D-02
    31  3.0000000000000D-01  7.5151730038365D-01 -9.2663158804393D-02
    32  3.1000000000000D-01  7.7372809985352D-01 -9.8208243040575D-02
    33  3.2000000000000D-01  7.9562549256087D-01 -1.0385872275402D-01
    34  3.3000000000000D-01  8.1719467327032D-01 -1.0959833274862D-01
    35  3.4000000000000D-01  8.3842056011506D-01 -1.1540942845524D-01
    36  3.5000000000000D-01  8.5928781043214D-01 -1.2127301461035D-01
    37  3.6000000000000D-01  8.7978083839254D-01 -1.2716877938458D-01
    38  3.7000000000000D-01  8.9988383441113D-01 -1.3307513394283D-01
    39  3.8000000000000D-01  9.1958078631568D-01 -1.3896925740017D-01
    40  3.9000000000000D-01  9.3885550224828D-01 -1.4482714712127D-01
    41  4.0000000000000D-01  9.5769163526647D-01 -1.5062367429310D-01
    42  4.1000000000000D-01  9.7607270960570D-01 -1.5633264468334D-01
    43  4.2000000000000D-01  9.9398214855819D-01 -1.6192686447811D-01
    44  4.3000000000000D-01  1.0114033039178D+00 -1.6737821107554D-01
    45  4.4000000000000D-01  1.0283194869339D+00 -1.7265770869243D-01
    46  4.5000000000000D-01  1.0447140007123D+00 -1.7773560862339D-01
    47  4.6000000000000D-01  1.0605701739929D+00 -1.8258147397337D-01
    48  4.7000000000000D-01  1.0758713962325D+00 -1.8716426866620D-01
    49  4.8000000000000D-01  1.0906011539088D+00 -1.9145245051332D-01
    50  4.9000000000000D-01  1.1047430679627D+00 -1.9541406810953D-01
    51  5.0000000000000D-01  1.1182809322856D+00 -1.9901686130424D-01
    52  5.1000000000000D-01  1.1311987531550D+00 -2.0222836497970D-01
    53  5.2000000000000D-01  1.1434807895168D+00 -2.0501601585098D-01
    54  5.3000000000000D-01  1.1551115940062D+00 -2.0734726198547D-01
    55  5.4000000000000D-01  1.1660760545960D+00 -2.0918967472463D-01
    56  5.5000000000000D-01  1.1763594367542D+00 -2.1051106267505D-01
    57  5.6000000000000D-01  1.1859474259922D+00 -2.1127958742158D-01
    58  5.7000000000000D-01  1.1948261706763D+00 -2.1146388060219D-01
    59  5.8000000000000D-01  1.2029823249749D+00 -2.1103316197077D-01
    60  5.9000000000000D-01  1.2104030918097D+00 -2.0995735806322D-01
    61  6.0000000000000D-01  1.2170762656749D+00 -2.0820722107124D-01
    62  6.1000000000000D-01  1.2229902751867D+00 -2.0575444751871D-01
    63  6.2000000000000D-01  1.2281342252240D+00 -2.0257179632735D-01
    64  6.3000000000000D-01  1.2324979385168D+00 -1.9863320585183D-01
    65  6.4000000000000D-01  1.2360719965406D+00 -1.9391390945805D-01
    66  6.5000000000000D-01  1.2388477795714D+00 -1.8839054921503D-01
    67  6.6000000000000D-01  1.2408175057567D+00 -1.8204128726741D-01
    68  6.7000000000000D-01  1.2419742690575D+00 -1.7484591445495D-01
    69  6.8000000000000D-01  1.2423120759175D+00 -1.6678595574516D-01
    70  6.9000000000000D-01  1.2418258805148D+00 -1.5784477204785D-01
    71  7.0000000000000D-01  1.2405116184553D+00 -1.4800765798361D-01
    72  7.1000000000000D-01  1.2383662387664D+00 -1.3726193518359D-01
    73  7.2000000000000D-01  1.2353877340544D+00 -1.2559704070531D-01
    74  7.3000000000000D-01  1.2315751686908D+00 -1.1300461015757D-01
    75  7.4000000000000D-01  1.2269287048955D+00 -9.9478555138470D-02
    76  7.5000000000000D-01  1.2214496265911D+00 -8.5015134602647D-02
    77  7.6000000000000D-01  1.2151403609053D+00 -6.9613019787644D-02
    78  7.7000000000000D-01  1.2080044972038D+00 -5.3273352345688D-02
    79  7.8000000000000D-01  1.2000468035424D+00 -3.5999795343899D-02
    80  7.9000000000000D-01  1.1912732404331D+00 -1.7798576815791D-02
    81  8.0000000000000D-01  1.1816909718239D+00  1.3214744327436D-03
    82  8.1000000000000D-01  1.1713083732029D+00  2.1348901037029D-02
    83  8.2000000000000D-01  1.1601350367393D+00  4.2269597556812D-02
    84  8.3000000000000D-01  1.1481817733886D+00  6.4066799453772D-02
    85  8.4000000000000D-01  1.1354606118911D+00  8.6721080760904D-02
    86  8.5000000000000D-01  1.1219847946081D+00  1.1021036061291D-01
    87  8.6000000000000D-01  1.1077687701430D+00  1.3450991877727D-01
    88  8.7000000000000D-01  1.0928281827106D+00  1.5959242029465D-01
    89  8.8000000000000D-01  1.0771798582220D+00  1.8542794930535D-01
    90  8.9000000000000D-01  1.0608417870680D+00  2.1198405210566D-01
    91  9.0000000000000D-01  1.0438331035900D+00  2.3922578944368D-01
    92  9.1000000000000D-01  1.0261740622417D+00  2.6711579803017D-01
    93  9.2000000000000D-01  1.0078860104533D+00  2.9561436120384D-01
    94  9.3000000000000D-01  9.8899135822325D-01  3.2467948865511D-01
    95  9.4000000000000D-01  9.6951354447281D-01  3.5426700507606D-01
    96  9.5000000000000D-01  9.4947700020968D-01  3.8433064756711D-01
    97  9.6000000000000D-01  9.2890710855996D-01  4.1482217159506D-01
    98  9.7000000000000D-01  9.0783016173788D-01  4.4569146525926D-01
    99  9.8000000000000D-01  8.8627331503515D-01  4.7688667158724D-01
   100  9.9000000000000D-01  8.6426453792254D-01  5.0835431854383D-01
   101  1.0000000000000D+00  8.4183256236847D-01  5.4003945640197D-01
   102  1.0100000000000D+00  8.1900682848991D-01  5.7188580208833D-01
   103  1.0200000000000D+00  7.9581742766237D-01  6.0383589008200D-01
   104  1.0300000000000D+00  7.7229504322644D-01  6.3583122941052D-01
   105  1.0400000000000D+00  7.4847088893922D-01  6.6781246625416D-01
   106  1.0500000000000D+00  7.2437664532834D-01  6.9971955163979D-01
   107  1.0600000000000D+00  7.0004439411757D-01  7.3149191367191D-01
   108  1.0700000000000D+00  6.7550655090143D-01  7.6306863372193D-01
   109  1.0800000000000D+00  6.5079579625584D-01  7.9438862596835D-01
   110  1.0900000000000D+00  6.2594500548070D-01  8.2539081965360D-01
   111  1.1000000000000D+00  6.0098717717757D-01  8.5601434340247D-01
   112  1.1100000000000D+00  5.7595536087450D-01  8.8619871092044D-01
   113  1.1200000000000D+00  5.5088258391628D-01  9.1588400737326D-01
   114  1.1300000000000D+00  5.2580177784549D-01  9.4501107572899D-01
   115  1.1400000000000D+00  5.0074570450470D-01  9.7352170233030D-01
   116  1.1500000000000D+00  4.7574688209642D-01  1.0013588009483D+00
   117  1.1600000000000D+00  4.5083751144162D-01  1.0284665945592D+00
   118  1.1700000000000D+00  4.2604940268137D-01  1.0547907940766D+00
   119  1.1800000000000D+00  4.0141390266919D-01  1.0802787732652D+00
   120  1.1900000000000D+00  3.7696182330488D-01  1.1048797390573D+00
   121  1.2000000000000D+00  3.5272337106154D-01  1.1285448964932D+00
   122  1.2100000000000D+00  3.2872807795878D-01  1.1512276075079D+00
   123  1.2200000000000D+00  3.0500473423548D-01  1.1728835427875D+00
   124  1.2300000000000D+00  2.8158132297496D-01  1.1934708259279D+00
   125  1.2400000000000D+00  2.5848495693285D-01  1.2129501691411D+00
   126  1.2500000000000D+00  2.3574181781871D-01  1.2312849997524D+00
   127  1.2600000000000D+00  2.1337709827691D-01  1.2484415767607D+00
   128  1.2700000000000D+00  1.9141494680833D-01  1.2643890967497D+00
   129  1.2800000000000D+00  1.6987841587452D-01  1.2790997884382D+00
   130  1.2900000000000D+00  1.4878941341605D-01  1.2925489952021D+00
   131  1.3000000000000D+00  1.2816865801041D-01  1.3047152449218D+00
   132  1.3100000000000D+00  1.0803563789675D-01  1.3155803065069D+00
   133  1.3200000000000D+00  8.8408574076940D-02  1.3251292325150D+00
   134  1.3300000000000D+00  6.9304387697567D-02  1.3333503873030D+00
   135  1.3400000000000D+00  5.0738671919524D-02  1.3402354601410D+00
   136  1.3500000000000D+00  3.2725668454334D-02  1.3457794628218D+00
   137  1.3600000000000D+00  1.5278248950536D-02  1.3499807112833D+00
   138  1.3700000000000D+00 -1.5920985945408D-03  1.3528407907909D+00
   139  1.3800000000000D+00 -1.7875278252759D-02  1.3543645043381D+00
   140  1.3900000000000D+00 -3.3562589249425D-02  1.3545598038536D+00
   141  1.4000000000000D+00 -4.8646723585781D-02  1.3534377039347D+00
   142  1.4100000000000D+00 -6.3121758081161D-02  1.3510121778534D+00
   143  1.4200000000000D+00 -7.6983140701467D-02  1.3473000355362D+00
   144  1.4300000000000D+00 -9.0227671102419D-02  1.3423207834273D+00
   145  1.4400000000000D+00 -1.0285347527438D-01  1.3360964660060D+00
   146  1.4500000000000D+00 -1.1485997422721D-01  1.3286514889020D+00
   147  1.4600000000000D+00 -1.2624784665949D-01  1.3200124235714D+00
   148  1.4700000000000D+00 -1.3701898553692D-01  1.3102077934361D+00
   149  1.4800000000000D+00 -1.4717644858730D-01  1.2992678416527D+00
   150  1.4900000000000D+00 -1.5672440263930D-01  1.2872242804250D+00
   151  1.5000000000000D+00 -1.6566806184135D-01  1.2741100221195D+00
   152  1.5100000000000D+00 -1.7401361973374D-01  1.2599588922429D+00
   153  1.5200000000000D+00 -1.8176817487457D-01  1.2448053201484D+00
   154  1.5300000000000D+00 -1.8893965230167D-01  1.2286840377915D+00
   155  1.5400000000000D+00 -1.9553671134806D-01  1.2116296672391D+00
   156  1.5500000000000D+00 -2.0156867261760D-01  1.1936765823949D+00
   157  1.5600000000000D+00 -2.0704539089749D-01  1.1748582211628D+00
   158  1.5700000000000D+00 -2.1197714430720D-01  1.1552065137142D+00
   159  1.5800000000000D+00 -2.1637463348524D-01  1.1347530432951D+00
   160  1.5900000000000D+00 -2.2024897283692D-01  1.1135298519294D+00
   161  1.6000000000000D+00 -2.2361176257478D-01  1.0915706348031D+00
   162  1.6100000000000D+00 -2.2647512279418D-01  1.0689114579436D+00
   163  1.6200000000000D+00 -2.2885164536562D-01  1.0455901418855D+00
   164  1.6300000000000D+00 -2.3075437656967D-01  1.0216461109008D+00
   165  1.6400000000000D+00 -2.3219679859136D-01  9.9712034104572D-01
   166  1.6500000000000D+00 -2.3319280334009D-01  9.7205516669548D-01
   167  1.6600000000000D+00 -2.3375666692279D-01  9.4649413632178D-01
   168  1.6700000000000D+00 -2.3390302131446D-01  9.2048184877744D-01
   169  1.6800000000000D+00 -2.3364682464024D-01  8.9406379176901D-01
   170  1.6900000000000D+00 -2.3300333009805D-01  8.6728618041744D-01
   171  1.7000000000000D+00 -2.3198805369672D-01  8.4019579638755D-01
   172  1.7100000000000D+00 -2.3061674106742D-01  8.1283982881227D-01
   173  1.7200000000000D+00 -2.2890533350181D-01  7.8526571733806D-01
   174  1.7300000000000D+00 -2.2686993347186D-01  7.5752099820937D-01
   175  1.7400000000000D+00 -2.2452676976808D-01  7.2965315368715D-01
   176  1.7500000000000D+00 -2.2189216248202D-01  7.0170946539763D-01
   177  1.7600000000000D+00 -2.1898248796965D-01  6.7373687194660D-01
   178  1.7700000000000D+00 -2.1581414396998D-01  6.4578183111634D-01
   179  1.7800000000000D+00 -2.1240351503338D-01  6.1789018704161D-01
   180  1.7900000000000D+00 -2.0876693836526D-01  5.9010704245589D-01
   181  1.8000000000000D+00 -2.0492067027186D-01  5.6247663645913D-01
   182  1.8100000000000D+00 -2.0088085323660D-01  5.3504222773423D-01
   183  1.8200000000000D+00 -1.9666348385538D-01  5.0784598370841D-01
   184  1.8300000000000D+00 -1.9228438157871D-01  4.8092887545336D-01
   185  1.8400000000000D+00 -1.8775915853307D-01  4.5433057886908D-01
   186  1.8500000000000D+00 -1.8310319030054D-01  4.2808938183401D-01
   187  1.8600000000000D+00 -1.7833158794527D-01  4.0224209787912D-01
   188  1.8700000000000D+00 -1.7345917115508D-01  3.7682398605055D-01
   189  1.8800000000000D+00 -1.6850044272812D-01  3.5186867740925D-01
   190  1.8900000000000D+00 -1.6346956433735D-01  3.2740810794884D-01
   191  1.9000000000000D+00 -1.5838033369350D-01  3.0347245815657D-01
   192  1.9100000000000D+00 -1.5324616313336D-01  2.8009009920409D-01
   193  1.9200000000000D+00 -1.4808005962856D-01  2.5728754568689D-01
   194  1.9300000000000D+00 -1.4289460635104D-01  2.3508941519820D-01
   195  1.9400000000000D+00 -1.3770194565686D-01  2.1351839425968D-01
   196  1.9500000000000D+00 -1.3251376371570D-01  1.9259521119438D-01
   197  1.9600000000000D+00 -1.2734127659157D-01  1.7233861525803D-01
   198  1.9700000000000D+00 -1.2219521795646D-01  1.5276536251211D-01
   199  1.9800000000000D+00 -1.1708582833816D-01  1.3389020802512D-01
   200  1.9900000000000D+00 -1.1202284592471D-01  1.1572590438755D-01
   201  2.0000000000000D+00 -1.0701549898855D-01  9.8283206660636D-02
   202  2.0100000000000D+00 -1.0207249976588D-01  8.1570883104114D-02
   203  2.0200000000000D+00 -9.7202039992623D-02  6.5595732288953D-02
   204  2.0300000000000D+00 -9.2411787859557D-02  5.0362605676747D-02
   205  2.0400000000000D+00 -8.7708886525065D-02  3.5874436060516D-02
   206  2.0500000000000D+00 -8.3099954092231D-02  2.2132271448586D-02
   207  2.0600000000000D+00 -7.8591084978486D-02  9.1353140495600D-03
   208  2.0700000000000D+00 -7.4187852774376D-02 -3.1190353959403D-03
   209  2.0800000000000D+00 -6.9895314369807D-02 -1.4635128797226D-02
   210  2.0900000000000D+00 -6.5718015480798D-02 -2.5419017046087D-02
   211  2.1000000000000D+00 -6.1659997417399D-02 -3.5478392136035D-02
   212  2.1100000000000D+00 -5.7724805058254D-02 -4.4822525281038D-02
   213  2.1200000000000D+00 -5.3915496059962D-02 -5.3462201045714D-02
   214  2.1300000000000D+00 -5.0234651106816D-02 -6.1409648208045D-02
   215  2.1400000000000D+00 -4.6684385285045D-02 -6.8678467213029D-02
   216  2.1500000000000D+00 -4.3266360429911D-02 -7.5283554782884D-02
   217  2.1600000000000D+00 -3.9981798393000D-02 -8.1241025956359D-02
   218  2.1700000000000D+00 -3.6831495227065D-02 -8.6568133716140D-02
   219  2.1800000000000D+00 -3.3815836131615D-02 -9.1283186713235D-02
   220  2.1900000000000D+00 -3.0934811165536D-02 -9.5405465276799D-02
   221  2.2000000000000D+00 -2.8188031627066D-02 -9.8955136070617D-02
   222  2.2100000000000D+00 -2.5574747021842D-02 -1.0195316568343D-01
   223  2.2200000000000D+00 -2.3093862577073D-02 -1.0442123356852D-01
   224  2.2300000000000D+00 -2.0743957211299D-02 -1.0638164448033D-01
   225  2.2400000000000D+00 -1.8523301893600D-02 -1.0785724085961D-01
   226  2.2500000000000D+00 -1.6429878314673D-02 -1.0887131552622D-01
   227  2.2600000000000D+00 -1.4461397835767D-02 -1.0944752464046D-01
   228  2.2700000000000D+00 -1.2615320581045D-02 -1.0960980177465D-01
   229  2.2800000000000D+00 -1.0888874655383D-02 -1.0938227298842D-01
   230  2.2900000000000D+00 -9.2790754436406D-03 -1.0878917305788D-01
   231  2.3000000000000D+00 -7.7827448108204D-03 -1.0785476386402D-01
   232  2.3100000000000D+00 -6.3965302873075D-03 -1.0660325427547D-01
   233  2.3200000000000D+00 -5.1169240911411D-03 -1.0505872230299D-01
   234  2.3300000000000D+00 -3.9402818800130D-03 -1.0324504002993D-01
   235  2.3400000000000D+00 -2.8628413360070D-03 -1.0118580062687D-01
   236  2.3500000000000D+00 -1.8807403516122D-03 -9.8904248661006D-02
   237  2.3600000000000D+00 -9.9003480367412D-04 -9.6423213641717D-02
   238  2.3700000000000D+00 -1.8671610758202D-04 -9.3765045810191D-02
   239  2.3800000000000D+00  5.3327200105109D-04 -9.0951556777548D-02
   240  2.3900000000000D+00  1.1740170526646D-03 -8.8003963056240D-02
   241  2.4000000000000D+00  1.7396221140422D-03 -8.4942833696697D-02
   242  2.4100000000000D+00  2.2341904442575D-03 -8.1788041113669D-02
   243  2.4200000000000D+00  2.6618108963539D-03 -7.8558716187908D-02
   244  2.4300000000000D+00  3.0265435939283D-03 -7.5273205745527D-02
   245  2.4400000000000D+00  3.3324072431809D-03 -7.1949038219931D-02
   246  2.4500000000000D+00  3.5833666595474D-03 -6.8602891262781D-02
   247  2.4600000000000D+00  3.7833212507481D-03 -6.5250564449919D-02
   248  2.4700000000000D+00  3.9360937763040D-03 -6.1906954362080D-02
   249  2.4800000000000D+00  4.0454200236118D-03 -5.8586034371289D-02
   250  2.4900000000000D+00  4.1149392057896D-03 -5.5300838414447D-02
   251  2.5000000000000D+00  4.1481857703805D-03 -5.2063451625431D-02
   252  2.5100000000000D+00  4.1485815709548D-03 -4.8885003226086D-02
   253  2.5200000000000D+00  4.1194289343700D-03 -4.5775663949988D-02
   254  2.5300000000000D+00  4.0639044920276D-03 -4.2744647438619D-02
   255  2.5400000000000D+00  3.9850537464615D-03 -3.9800215264510D-02
   256  2.5500000000000D+00  3.8857864453946D-03 -3.6949685921158D-02
   257  2.5600000000000D+00  3.7688729296420D-03 -3.4199448432134D-02
   258  2.5700000000000D+00  3.6369410219565D-03 -3.1554978603499D-02
   259  2.5800000000000D+00  3.4924736979613D-03 -2.9020858918015D-02
   260  2.5900000000000D+00  3.3378076255249D-03 -2.6600802382528D-02
   261  2.6000000000000D+00  3.1751322483493D-03 -2.4297678844843D-02
   262  2.6100000000000D+00  3.0064895354638D-03 -2.2113544248341D-02
   263  2.6200000000000D+00  2.8337745340691D-03 -2.0049673327499D-02
   264  2.6300000000000D+00  2.6587364042431D-03 -1.8106594321804D-02
   265  2.6400000000000D+00  2.4829799901532D-03 -1.6284125884529D-02
   266  2.6500000000000D+00  2.3079681049743D-03 -1.4581416794872D-02
   267  2.6600000000000D+00  2.1350242190269D-03 -1.2996987166790D-02
   268  2.6700000000000D+00  1.9653355562161D-03 -1.1528771153079D-02
   269  2.6800000000000D+00  1.7999567732440D-03 -1.0174161607520D-02
   270  2.6900000000000D+00  1.6398139426827D-03 -8.9300556552107D-03
   271  2.7000000000000D+00  1.4857088641646D-03 -7.7929012638743D-03
   272  2.7100000000000D+00  1.3383237447195D-03 -6.7587446085737D-03
   273  2.7200000000000D+00  1.1982261101893D-03 -5.8232778574272D-03
   274  2.7300000000000D+00  1.0658739571913D-03 -4.9818874119689D-03
   275  2.7400000000000D+00  9.4162106817415D-04 -4.2297019166545D-03
   276  2.7500000000000D+00  8.2572245791238D-04 -3.5616400132224D-03
   277  2.7600000000000D+00  7.1833995535290D-04 -2.9724579415238D-03
   278  2.7700000000000D+00  6.1954782784128D-04 -2.4567963578627D-03
   279  2.7800000000000D+00  5.2933835465350D-04 -2.0092257996207D-03
   280  2.7900000000000D+00  4.4762742068568D-04 -1.6242913474844D-03
   281  2.8000000000000D+00  3.7426016217212D-04 -1.2965566444082D-03
   282  2.8100000000000D+00  3.0901625869094D-04 -1.0206448468944D-03
   283  2.8200000000000D+00  2.5161520344617D-04 -7.9127856083500D-04
   284  2.8300000000000D+00  2.0172158122967D-04 -6.0331887648377D-04
   285  2.8400000000000D+00  1.5894983915755D-04 -4.5180057845844D-04
   286  2.8500000000000D+00  1.2287244420012D-04 -3.3198587923034D-04
   287  2.8600000000000D+00  9.3016407903563D-05 -2.3935051878489D-04
   288  2.8700000000000D+00  6.8863086289102D-05 -1.6958777389882D-04
   289  2.8800000000000D+00  4.9869160663991D-05 -1.1873311871002D-04
   290  2.8900000000000D+00  3.5346783145547D-05 -8.2831199709894D-05
   291  2.9000000000000D+00  2.4906044782641D-05 -5.9190216058878D-05
   292  2.9100000000000D+00  1.7979998259142D-05 -4.5047939932779D-05
   293  2.9200000000000D+00  1.4173157604088D-05 -3.8465033035999D-05
   294  2.9300000000000D+00  1.2500976949609D-05 -3.6369999814228D-05
   295  2.9400000000000D+00  1.1602586582453D-05 -3.5057821776059D-05
   296  2.9500000000000D+00  1.0461631374407D-05 -3.1959478006531D-05
   297  2.9600000000000D+00  7.7086969201069D-06 -2.3712465927336D-05
   298  2.9700000000000D+00  4.4500066804283D-06 -1.3707860659307D-05
   299  2.9800000000000D+00  1.3060649175396D-06 -4.0181037471534D-06
   300  2.9900000000000D+00 -6.2631156305978D-07  1.9641342672982D-06
   301  3.0000000000000D+00 -1.0939384337954D-06  3.4382509269736D-06
   302  3.0100000000000D+00 -7.6730884192116D-07  2.4154954120067D-06
   303  3.0200000000000D+00 -5.8745756400504D-08  1.8514745237305D-07
   304  3.0300000000000D+00  1.8979356070700D-07 -5.9535988150638D-07
   305  3.0400000000000D+00  2.3192114695150D-07 -7.2830763446557D-07
   306  3.0500000000000D+00  1.2346351550419D-07 -3.8808208514147D-07
   307  3.0600000000000D+00 -8.7731751785013D-09  2.6788432880437D-08
   308  3.0700000000000D+00 -2.7904436286980D-08  8.5204740966755D-08
   309  3.0800000000000D+00 -2.6751749933411D-08  8.1685073299519D-08
   310  3.0900000000000D+00 -8.8305187895921D-09  2.6963528606394D-08
   311  3.1000000000000D+00  0.0000000000000D+00  0.0000000000000D+00
   312  3.1100000000000D+00  0.0000000000000D+00  0.0000000000000D+00
   313  3.1200000000000D+00  0.0000000000000D+00  0.0000000000000D+00
   314  3.1300000000000D+00  0.0000000000000D+00  0.0000000000000D+00
   315  3.1400000000000D+00  0.0000000000000D+00  0.0000000000000D+00
   316  3.1500000000000D+00  0.0000000000000D+00  0.0000000000000D+00
   317  3.1600000000000D+00  0.0000000000000D+00  0.0000000000000D+00
   318  3.1700000000000D+00  0.0000000000000D+00  0.0000000000000D+00
   319  3.1800000000000D+00  0.0000000000000D+00  0.0000000000000D+00
   320  3.1900000000000D+00  0.0000000000000D+00  0.0000000000000D+00
   321  3.2000000000000D+00  0.0000000000000D+00  0.0000000000000D+00
   322  3.2100000000000D+00  0.0000000000000D+00  0.0000000000000D+00
   323  3.2200000000000D+00  0.0000000000000D+00  0.0000000000000D+00
   324  3.2300000000000D+00  0.0000000000000D+00  0.0000000000000D+00
   325  3.2400000000000D+00  0.0000000000000D+00  0.0000000000000D+00
   326  3.2500000000000D+00  0.0000000000000D+00  0.0000000000000D+00
   327  3.2600000000000D+00  0.0000000000000D+00  0.0000000000000D+00
   328  3.2700000000000D+00  0.0000000000000D+00  0.0000000000000D+00
   329  3.2800000000000D+00  0.0000000000000D+00  0.0000000000000D+00
   330  3.2900000000000D+00  0.0000000000000D+00  0.0000000000000D+00
   331  3.3000000000000D+00  0.0000000000000D+00  0.0000000000000D+00
   332  3.3100000000000D+00  0.0000000000000D+00  0.0000000000000D+00
   333  3.3200000000000D+00  0.0000000000000D+00  0.0000000000000D+00
   334  3.3300000000000D+00  0.0000000000000D+00  0.0000000000000D+00
   335  3.3400000000000D+00  0.0000000000000D+00  0.0000000000000D+00
   336  3.3500000000000D+00  0.0000000000000D+00  0.0000000000000D+00
   337  3.3600000000000D+00  0.0000000000000D+00  0.0000000000000D+00
   338  3.3700000000000D+00  0.0000000000000D+00  0.0000000000000D+00
   339  3.3800000000000D+00  0.0000000000000D+00  0.0000000000000D+00
   340  3.3900000000000D+00  0.0000000000000D+00  0.0000000000000D+00
   341  3.4000000000000D+00  0.0000000000000D+00  0.0000000000000D+00
   342  3.4100000000000D+00  0.0000000000000D+00  0.0000000000000D+00
   343  3.4200000000000D+00  0.0000000000000D+00  0.0000000000000D+00
   344  3.4300000000000D+00  0.0000000000000D+00  0.0000000000000D+00
   345  3.4400000000000D+00  0.0000000000000D+00  0.0000000000000D+00
   346  3.4500000000000D+00  0.0000000000000D+00  0.0000000000000D+00
   347  3.4600000000000D+00  0.0000000000000D+00  0.0000000000000D+00
   348  3.4700000000000D+00  0.0000000000000D+00  0.0000000000000D+00
   349  3.4800000000000D+00  0.0000000000000D+00  0.0000000000000D+00
   350  3.4900000000000D+00  0.0000000000000D+00  0.0000000000000D+00
   351  3.5000000000000D+00  0.0000000000000D+00  0.0000000000000D+00
   352  3.5100000000000D+00  0.0000000000000D+00  0.0000000000000D+00
   353  3.5200000000000D+00  0.0000000000000D+00  0.0000000000000D+00
   354  3.5300000000000D+00  0.0000000000000D+00  0.0000000000000D+00
   355  3.5400000000000D+00  0.0000000000000D+00  0.0000000000000D+00
   356  3.5500000000000D+00  0.0000000000000D+00  0.0000000000000D+00
   357  3.5600000000000D+00  0.0000000000000D+00  0.0000000000000D+00
   358  3.5700000000000D+00  0.0000000000000D+00  0.0000000000000D+00
   359  3.5800000000000D+00  0.0000000000000D+00  0.0000000000000D+00
   360  3.5900000000000D+00  0.0000000000000D+00  0.0000000000000D+00
   361  3.6000000000000D+00  0.0000000000000D+00  0.0000000000000D+00
   362  3.6100000000000D+00  0.0000000000000D+00  0.0000000000000D+00
   363  3.6200000000000D+00  0.0000000000000D+00  0.0000000000000D+00
   364  3.6300000000000D+00  0.0000000000000D+00  0.0000000000000D+00
   365  3.6400000000000D+00  0.0000000000000D+00  0.0000000000000D+00
   366  3.6500000000000D+00  0.0000000000000D+00  0.0000000000000D+00
   367  3.6600000000000D+00  0.0000000000000D+00  0.0000000000000D+00
   368  3.6700000000000D+00  0.0000000000000D+00  0.0000000000000D+00
   369  3.6800000000000D+00  0.0000000000000D+00  0.0000000000000D+00
   370  3.6900000000000D+00  0.0000000000000D+00  0.0000000000000D+00
   371  3.7000000000000D+00  0.0000000000000D+00  0.0000000000000D+00
   372  3.7100000000000D+00  0.0000000000000D+00  0.0000000000000D+00
   373  3.7200000000000D+00  0.0000000000000D+00  0.0000000000000D+00
   374  3.7300000000000D+00  0.0000000000000D+00  0.0000000000000D+00
   375  3.7400000000000D+00  0.0000000000000D+00  0.0000000000000D+00
   376  3.7500000000000D+00  0.0000000000000D+00  0.0000000000000D+00
   377  3.7600000000000D+00  0.0000000000000D+00  0.0000000000000D+00
   378  3.7700000000000D+00  0.0000000000000D+00  0.0000000000000D+00
   379  3.7800000000000D+00  0.0000000000000D+00  0.0000000000000D+00
   380  3.7900000000000D+00  0.0000000000000D+00  0.0000000000000D+00
   381  3.8000000000000D+00  0.0000000000000D+00  0.0000000000000D+00
   382  3.8100000000000D+00  0.0000000000000D+00  0.0000000000000D+00
   383  3.8200000000000D+00  0.0000000000000D+00  0.0000000000000D+00
   384  3.8300000000000D+00  0.0000000000000D+00  0.0000000000000D+00
   385  3.8400000000000D+00  0.0000000000000D+00  0.0000000000000D+00
   386  3.8500000000000D+00  0.0000000000000D+00  0.0000000000000D+00
   387  3.8600000000000D+00  0.0000000000000D+00  0.0000000000000D+00
   388  3.8700000000000D+00  0.0000000000000D+00  0.0000000000000D+00
   389  3.8800000000000D+00  0.0000000000000D+00  0.0000000000000D+00
   390  3.8900000000000D+00  0.0000000000000D+00  0.0000000000000D+00
   391  3.9000000000000D+00  0.0000000000000D+00  0.0000000000000D+00
   392  3.9100000000000D+00  0.0000000000000D+00  0.0000000000000D+00
   393  3.9200000000000D+00  0.0000000000000D+00  0.0000000000000D+00
   394  3.9300000000000D+00  0.0000000000000D+00  0.0000000000000D+00
   395  3.9400000000000D+00  0.0000000000000D+00  0.0000000000000D+00
   396  3.9500000000000D+00  0.0000000000000D+00  0.0000000000000D+00
   397  3.9600000000000D+00  0.0000000000000D+00  0.0000000000000D+00
   398  3.9700000000000D+00  0.0000000000000D+00  0.0000000000000D+00
   399  3.9800000000000D+00  0.0000000000000D+00  0.0000000000000D+00
   400  3.9900000000000D+00  0.0000000000000D+00  0.0000000000000D+00
   401  4.0000000000000D+00  0.0000000000000D+00  0.0000000000000D+00
   402  4.0100000000000D+00  0.0000000000000D+00  0.0000000000000D+00
   403  4.0200000000000D+00  0.0000000000000D+00  0.0000000000000D+00
   404  4.0300000000000D+00  0.0000000000000D+00  0.0000000000000D+00
   405  4.0400000000000D+00  0.0000000000000D+00  0.0000000000000D+00
   406  4.0500000000000D+00  0.0000000000000D+00  0.0000000000000D+00
   407  4.0600000000000D+00  0.0000000000000D+00  0.0000000000000D+00
   408  4.0700000000000D+00  0.0000000000000D+00  0.0000000000000D+00
   409  4.0800000000000D+00  0.0000000000000D+00  0.0000000000000D+00
   410  4.0900000000000D+00  0.0000000000000D+00  0.0000000000000D+00
   411  4.1000000000000D+00  0.0000000000000D+00  0.0000000000000D+00
   412  4.1100000000000D+00  0.0000000000000D+00  0.0000000000000D+00
   413  4.1200000000000D+00  0.0000000000000D+00  0.0000000000000D+00
   414  4.1300000000000D+00  0.0000000000000D+00  0.0000000000000D+00
   415  4.1400000000000D+00  0.0000000000000D+00  0.0000000000000D+00
   416  4.1500000000000D+00  0.0000000000000D+00  0.0000000000000D+00
   417  4.1600000000000D+00  0.0000000000000D+00  0.0000000000000D+00
   418  4.1700000000000D+00  0.0000000000000D+00  0.0000000000000D+00
   419  4.1800000000000D+00  0.0000000000000D+00  0.0000000000000D+00
   420  4.1900000000000D+00  0.0000000000000D+00  0.0000000000000D+00
   421  4.2000000000000D+00  0.0000000000000D+00  0.0000000000000D+00
   422  4.2100000000000D+00  0.0000000000000D+00  0.0000000000000D+00