Au    ONCVPSP-3.3.1  r_core=   2.46102   2.46102   2.18429   3.16160
     79.0000     19.0000      210904    zatom,zion,pspd
     8      11   3     4   600     0    pspcod,pspxc,lmax,lloc,mmax,r2well
  5.99000000  0.00000000  0.00000000    rchrg fchrg qchrg
     2     4     4     3    nproj
     3     1           extension_switch
     4     4     4    nprojso
   0                         5.1434361980047D-01  4.0332372461197D+00
     1  0.0000000000000D+00 -1.4973057516077D-11 -3.8274938773952D-13
     2  1.0000000000000D-02  7.8424956511979D-03  5.5884416191255D-02
     3  2.0000000000000D-02  1.5681524804909D-02  1.1167911292902D-01
     4  3.0000000000000D-02  2.3513721227730D-02  1.6729452513595D-01
     5  4.0000000000000D-02  3.1335918490948D-02  2.2264139625750D-01
     6  5.0000000000000D-02  3.9145248067985D-02  2.7763093194974D-01
     7  6.0000000000000D-02  4.6939235276527D-02  3.3217495307915D-01
     8  7.0000000000000D-02  5.4715892364514D-02  3.8618604780545D-01
     9  8.0000000000000D-02  6.2473808054090D-02  4.3957772251907D-01
    10  9.0000000000000D-02  7.0212232876263D-02  4.9226455140506D-01
    11  1.0000000000000D-01  7.7931159651162D-02  5.4416232440631D-01
    12  1.1000000000000D-01  8.5631398494326D-02  5.9518819335916D-01
    13  1.2000000000000D-01  9.3314645758457D-02  6.4526081607574D-01
    14  1.3000000000000D-01  1.0098354635219D-01  6.9430049814816D-01
    15  1.4000000000000D-01  1.0864174891267D-01  7.4222933225079D-01
    16  1.5000000000000D-01  1.1629395334676D-01  7.8897133471829D-01
    17  1.6000000000000D-01  1.2394595029686D-01  8.3445257917827D-01
    18  1.7000000000000D-01  1.3160465213051D-01  8.7860132701936D-01
    19  1.8000000000000D-01  1.3927811509889D-01  9.2134815447694D-01
    20  1.9000000000000D-01  1.4697555235753D-01  9.6262607612113D-01
    21  2.0000000000000D-01  1.5470733759229D-01  1.0023706645335D+00
    22  2.1000000000000D-01  1.6248499904553D-01  1.0405201659617D+00
    23  2.2000000000000D-01  1.7032120379073D-01  1.0770156117439D+00
    24  2.3000000000000D-01  1.7822973215805D-01  1.1118009252977D+00
    25  2.4000000000000D-01  1.8622544226919D-01  1.1448230244713D+00
    26  2.5000000000000D-01  1.9432422469577D-01  1.1760319190588D+00
    27  2.6000000000000D-01  2.0254294731269D-01  1.2053808032853D+00
    28  2.7000000000000D-01  2.1089939047439D-01  1.2328261430701D+00
    29  2.8000000000000D-01  2.1941217269922D-01  1.2583277578841D+00
    30  2.9000000000000D-01  2.2810066710372D-01  1.2818488970188D+00
    31  3.0000000000000D-01  2.3698490888426D-01  1.3033563100922D+00
    32  3.1000000000000D-01  2.4608549419906D-01  1.3228203116209D+00
    33  3.2000000000000D-01  2.5542347085723D-01  1.3402148394960D+00
    34  3.3000000000000D-01  2.6502022127422D-01  1.3555175072038D+00
    35  3.4000000000000D-01  2.7489733820367D-01  1.3687096496431D+00
    36  3.5000000000000D-01  2.8507649380467D-01  1.3797763623947D+00
    37  3.6000000000000D-01  2.9557930265007D-01  1.3887065343101D+00
    38  3.7000000000000D-01  3.0642717932543D-01  1.3954928732921D+00
    39  3.8000000000000D-01  3.1764119130979D-01  1.4001319251512D+00
    40  3.9000000000000D-01  3.2924190786769D-01  1.4026240854301D+00
    41  4.0000000000000D-01  3.4124924571735D-01  1.4029736040985D+00
    42  4.1000000000000D-01  3.5368231227128D-01  1.4011885830324D+00
    43  4.2000000000000D-01  3.6655924727440D-01  1.3972809662019D+00
    44  4.3000000000000D-01  3.7989706368839D-01  1.3912665225043D+00
    45  4.4000000000000D-01  3.9371148869222D-01  1.3831648211900D+00
    46  4.5000000000000D-01  4.0801680568425D-01  1.3729991998449D+00
    47  4.6000000000000D-01  4.2282569818397D-01  1.3607967249018D+00
    48  4.7000000000000D-01  4.3814909653860D-01  1.3465881446716D+00
    49  4.8000000000000D-01  4.5399602834315D-01  1.3304078348971D+00
    50  4.9000000000000D-01  4.7037347348076D-01  1.3122937368472D+00
    51  5.0000000000000D-01  4.8728622468444D-01  1.2922872879867D+00
    52  5.1000000000000D-01  5.0473675451009D-01  1.2704333452712D+00
    53  5.2000000000000D-01  5.2272508959542D-01  1.2467801011323D+00
    54  5.3000000000000D-01  5.4124869305930D-01  1.2213789922387D+00
    55  5.4000000000000D-01  5.6030235587088D-01  1.1942846011319D+00
    56  5.5000000000000D-01  5.7987809798863D-01  1.1655545508549D+00
    57  5.6000000000000D-01  5.9996508003547D-01  1.1352493927108D+00
    58  5.7000000000000D-01  6.2054952623746D-01  1.1034324873046D+00
    59  5.8000000000000D-01  6.4161465931102D-01  1.0701698790420D+00
    60  5.9000000000000D-01  6.6314064793665D-01  1.0355301642748D+00
    61  6.0000000000000D-01  6.8510456740617D-01  9.9958435330522D-01
    62  6.1000000000000D-01  7.0748037397565D-01  9.6240572647551D-01
    63  6.2000000000000D-01  7.3023889339833D-01  9.2406968459215D-01
    64  6.3000000000000D-01  7.5334782404935D-01  8.8465359395017D-01
    65  6.4000000000000D-01  7.7677175499023D-01  8.4423662624244D-01
    66  6.5000000000000D-01  8.0047219925269D-01  8.0289959365713D-01
    67  6.6000000000000D-01  8.2440764255154D-01  7.6072477948470D-01
    68  6.7000000000000D-01  8.4853360756411D-01  7.1779576457311D-01
    69  6.8000000000000D-01  8.7280273383910D-01  6.7419724998771D-01
    70  6.9000000000000D-01  8.9716487332209D-01  6.3001487624866D-01
    71  7.0000000000000D-01  9.2156720140786D-01  5.8533503953494D-01
    72  7.1000000000000D-01  9.4595434335195D-01  5.4024470525974D-01
    73  7.2000000000000D-01  9.7026851579522D-01  4.9483121943636D-01
    74  7.3000000000000D-01  9.9444968307711D-01  4.4918211826794D-01
    75  7.4000000000000D-01  1.0184357279349D+00  4.0338493640705D-01
    76  7.5000000000000D-01  1.0421626361095D+00  3.5752701434328D-01
    77  7.6000000000000D-01  1.0655646943012D+00  3.1169530538765D-01
    78  7.7000000000000D-01  1.0885747008448D+00  2.6597618273247D-01
    79  7.8000000000000D-01  1.1111241884005D+00  2.2045524707366D-01
    80  7.9000000000000D-01  1.1331436578855D+00  1.7521713528957D-01
    81  8.0000000000000D-01  1.1545628228059D+00  1.3034533067621D-01
    82  8.1000000000000D-01  1.1753108630804D+00  8.5921975243002D-02
    83  8.2000000000000D-01  1.1953166873883D+00  4.2027684575927D-02
    84  8.3000000000000D-01  1.2145092030164D+00 -1.2586342239510D-03
    85  8.4000000000000D-01  1.2328175921242D+00 -4.3859961018825D-02
    86  8.5000000000000D-01  1.2501715933007D+00 -8.5701337023925D-02
    87  8.6000000000000D-01  1.2665017872395D+00 -1.2671003460699D-01
    88  8.7000000000000D-01  1.2817398853202D+00 -1.6681572200131D-01
    89  8.8000000000000D-01  1.2958190198508D+00 -2.0595062244346D-01
    90  8.9000000000000D-01  1.3086740346964D+00 -2.4404966725602D-01
    91  9.0000000000000D-01  1.3202417749982D+00 -2.8105064240657D-01
    92  9.1000000000000D-01  1.3304613746682D+00 -3.1689432808665D-01
    93  9.2000000000000D-01  1.3392745403354D+00 -3.5152463086921D-01
    94  9.3000000000000D-01  1.3466258304154D+00 -3.8488870801932D-01
    95  9.4000000000000D-01  1.3524629279750D+00 -4.1693708355056D-01
    96  9.5000000000000D-01  1.3567369060740D+00 -4.4762375563991D-01
    97  9.6000000000000D-01  1.3594024842784D+00 -4.7690629503481D-01
    98  9.7000000000000D-01  1.3604182750625D+00 -5.0474593410955D-01
    99  9.8000000000000D-01  1.3597470188421D+00 -5.3110764625265D-01
   100  9.9000000000000D-01  1.3573558064171D+00 -5.5596021529326D-01
   101  1.0000000000000D+00  1.3532162876386D+00 -5.7927629470153D-01
   102  1.0100000000000D+00  1.3473048651626D+00 -6.0103245632807D-01
   103  1.0200000000000D+00  1.3396028722050D+00 -6.2120922847674D-01
   104  1.0300000000000D+00  1.3300967332666D+00 -6.3979112313692D-01
   105  1.0400000000000D+00  1.3187781068616D+00 -6.5676665223361D-01
   106  1.0500000000000D+00  1.3056440093512D+00 -6.7212833278817D-01
   107  1.0600000000000D+00  1.2906969190518D+00 -6.8587268091355D-01
   108  1.0700000000000D+00  1.2739448598699D+00 -6.9800019460694D-01
   109  1.0800000000000D+00  1.2554014637923D+00 -7.0851532533509D-01
   110  1.0900000000000D+00  1.2350860116484D+00 -7.1742643844453D-01
   111  1.1000000000000D+00  1.2130234516483D+00 -7.2474576246580D-01
   112  1.1100000000000D+00  1.1892443952844D+00 -7.3048932741308D-01
   113  1.1200000000000D+00  1.1637850902917D+00 -7.3467689222278D-01
   114  1.1300000000000D+00  1.1366873704433D+00 -7.3733186150521D-01
   115  1.1400000000000D+00  1.1079985820724D+00 -7.3848119182500D-01
   116  1.1500000000000D+00  1.0777714872780D+00 -7.3815528775041D-01
   117  1.1600000000000D+00  1.0460641439086D+00 -7.3638788795919D-01
   118  1.1700000000000D+00  1.0129397624931D+00 -7.3321594171354D-01
   119  1.1800000000000D+00  9.7846654039637D-01 -7.2867947605382D-01
   120  1.1900000000000D+00  9.4271747355453D-01 -7.2282145408460D-01
   121  1.2000000000000D+00  9.0577014627273D-01 -7.1568762476824D-01
   122  1.2100000000000D+00  8.6770649964788D-01 -7.0732636466423D-01
   123  1.2200000000000D+00  8.2861257924865D-01 -6.9778851207406D-01
   124  1.2300000000000D+00  7.8857826280532D-01 -6.8712719408675D-01
   125  1.2400000000000D+00  7.4769696874206D-01 -6.7539764704122D-01
   126  1.2500000000000D+00  7.0606534644587D-01 -6.6265703093842D-01
   127  1.2600000000000D+00  6.6378294925121D-01 -6.4896423835919D-01
   128  1.2700000000000D+00  6.2095189121751D-01 -6.3437969846636D-01
   129  1.2800000000000D+00  5.7767648880767D-01 -6.1896517667611D-01
   130  1.2900000000000D+00  5.3406288864456D-01 -6.0278357060045D-01
   131  1.3000000000000D+00  4.9021868261356D-01 -5.8589870287817D-01
   132  1.3100000000000D+00  4.4625251158111D-01 -5.6837511151034D-01
   133  1.3200000000000D+00  4.0227365906626D-01 -5.5027783833029D-01
   134  1.3300000000000D+00  3.5839163625772D-01 -5.3167221623723D-01
   135  1.3400000000000D+00  3.1471575975581D-01 -5.1262365582260D-01
   136  1.3500000000000D+00  2.7135472348486D-01 -4.9319743202290D-01
   137  1.3600000000000D+00  2.2841616621682D-01 -4.7345847141277D-01
   138  1.3700000000000D+00  1.8600623615638D-01 -4.5347114076875D-01
   139  1.3800000000000D+00  1.4422915405784D-01 -4.3329903750230D-01
   140  1.3900000000000D+00  1.0318677630675D-01 -4.1300478255230D-01
   141  1.4000000000000D+00  6.2978159444070D-02 -3.9264981634060D-01
   142  1.4100000000000D+00  2.3699127511565D-02 -3.7229419831942D-01
   143  1.4200000000000D+00 -1.4558156338235D-02 -3.5199641068988D-01
   144  1.4300000000000D+00 -5.1705612613777D-02 -3.3181316679845D-01
   145  1.4400000000000D+00 -8.7659661347556D-02 -3.1179922469544D-01
   146  1.4500000000000D+00 -1.2234162965829D-01 -2.9200720638340D-01
   147  1.4600000000000D+00 -1.5567814993606D-01 -2.7248742312081D-01
   148  1.4700000000000D+00 -1.8760154729257D-01 -2.5328770729066D-01
   149  1.4800000000000D+00 -2.1805021530082D-01 -2.3445325114818D-01
   150  1.4900000000000D+00 -2.4696897891382D-01 -2.1602645283596D-01
   151  1.5000000000000D+00 -2.7430944351701D-01 -1.9804677001375D-01
   152  1.5100000000000D+00 -3.0003032940713D-01 -1.8055058130533D-01
   153  1.5200000000000D+00 -3.2409779053741D-01 -1.6357105595967D-01
   154  1.5300000000000D+00 -3.4648571721051D-01 -1.4713803175901D-01
   155  1.5400000000000D+00 -3.6717602158913D-01 -1.3127790155527D-01
   156  1.5500000000000D+00 -3.8615891283224D-01 -1.1601350651403D-01
   157  1.5600000000000D+00 -4.0343312003427D-01 -1.0136404740848D-01
   158  1.5700000000000D+00 -4.1900621042670D-01 -8.7344973628297D-02
   159  1.5800000000000D+00 -4.3289456590082D-01 -7.3967970430888D-02
   160  1.5900000000000D+00 -4.4512364201842D-01 -6.1240869366842D-02
   161  1.6000000000000D+00 -4.5572925428670D-01 -4.9167288720108D-02
   162  1.6100000000000D+00 -4.6475554377875D-01 -3.7747174952800D-02
   163  1.6200000000000D+00 -4.7225215804759D-01 -2.6977553132024D-02
   164  1.6300000000000D+00 -4.7827205335645D-01 -1.6853160257127D-02
   165  1.6400000000000D+00 -4.8286815892686D-01 -7.3673972605214D-03
   166  1.6500000000000D+00 -4.8609377749794D-01  1.4877238184419D-03
   167  1.6600000000000D+00 -4.8800332446297D-01  9.7217099597279D-03
   168  1.6700000000000D+00 -4.8865175448914D-01  1.7345377577967D-02
   169  1.6800000000000D+00 -4.8809469279255D-01  2.4370827087365D-02
   170  1.6900000000000D+00 -4.8638831749675D-01  3.0811352205441D-02
   171  1.7000000000000D+00 -4.8358930106899D-01  3.6681365404917D-02
   172  1.7100000000000D+00 -4.7975473196803D-01  4.1996318703293D-02
   173  1.7200000000000D+00 -4.7494202877799D-01  4.6772623109071D-02
   174  1.7300000000000D+00 -4.6920884386687D-01  5.1027565988647D-02
   175  1.7400000000000D+00 -4.6261295916461D-01  5.4779227118327D-02
   176  1.7500000000000D+00 -4.5521218160430D-01  5.8046395689466D-02
   177  1.7600000000000D+00 -4.4706423442751D-01  6.0848487195148D-02
   178  1.7700000000000D+00 -4.3822663803537D-01  6.3205458520630D-02
   179  1.7800000000000D+00 -4.2875658783786D-01  6.5137723370946D-02
   180  1.7900000000000D+00 -4.1871083209785D-01  6.6666068976628D-02
   181  1.8000000000000D+00 -4.0814554635903D-01  6.7811573111244D-02
   182  1.8100000000000D+00 -3.9711620948808D-01  6.8595522991992D-02
   183  1.8200000000000D+00 -3.8567748254924D-01  6.9039336414799D-02
   184  1.8300000000000D+00 -3.7388308432436D-01  6.9164483372657D-02
   185  1.8400000000000D+00 -3.6178566386948D-01  6.8992408303632D-02
   186  1.8500000000000D+00 -3.4943667823599D-01  6.8544455356455D-02
   187  1.8600000000000D+00 -3.3688627831930D-01  6.7841797599607D-02
   188  1.8700000000000D+00 -3.2418319655379D-01  6.6905368303400D-02
   189  1.8800000000000D+00 -3.1137463613814D-01  6.5755794312637D-02
   190  1.8900000000000D+00 -2.9850616591795D-01  6.4413332613500D-02
   191  1.9000000000000D+00 -2.8562162268115D-01  6.2897810746234D-02
   192  1.9100000000000D+00 -2.7276301858715D-01  6.1228570282716D-02
   193  1.9200000000000D+00 -2.5997045583850D-01  5.9424414088508D-02
   194  1.9300000000000D+00 -2.4728204835669D-01  5.7503557234273D-02
   195  1.9400000000000D+00 -2.3473385119694D-01  5.5483581788448D-02
   196  1.9500000000000D+00 -2.2235979838865D-01  5.3381395710632D-02
   197  1.9600000000000D+00 -2.1019164851275D-01  5.1213195554989D-02
   198  1.9700000000000D+00 -1.9825893998565D-01  4.8994433663798D-02
   199  1.9800000000000D+00 -1.8658895422066D-01  4.6739789155197D-02
   200  1.9900000000000D+00 -1.7520668888571D-01  4.4463143465900D-02
   201  2.0000000000000D+00 -1.6413483982506D-01  4.2177559903900D-02
   202  2.0100000000000D+00 -1.5339379244320D-01  3.9895267459015D-02
   203  2.0200000000000D+00 -1.4300162293344D-01  3.7627648971984D-02
   204  2.0300000000000D+00 -1.3297410784354D-01  3.5385233099597D-02
   205  2.0400000000000D+00 -1.2332474422626D-01  3.3177690824656D-02
   206  2.0500000000000D+00 -1.1406477772100D-01  3.1013835555796D-02
   207  2.0600000000000D+00 -1.0520324035809D-01  2.8901627400259D-02
   208  2.0700000000000D+00 -9.6746996973259D-02  2.6848181192671D-02
   209  2.0800000000000D+00 -8.8700799539776D-02  2.4859778007872D-02
   210  2.0900000000000D+00 -8.1067350656971D-02  2.2941880541168D-02
   211  2.1000000000000D+00 -7.3847373681228D-02  2.1099151472062D-02
   212  2.1100000000000D+00 -6.7039691097369D-02  1.9335475307864D-02
   213  2.1200000000000D+00 -6.0641309513705D-02  1.7653983131022D-02
   214  2.1300000000000D+00 -5.4647510780309D-02  1.6057080045709D-02
   215  2.1400000000000D+00 -4.9051949817795D-02  1.4546475472078D-02
   216  2.1500000000000D+00 -4.3846757015759D-02  1.3123215555632D-02
   217  2.1600000000000D+00 -3.9022646039377D-02  1.1787717910073D-02
   218  2.1700000000000D+00 -3.4569025759416D-02  1.0539808242876D-02
   219  2.1800000000000D+00 -3.0474115523419D-02  9.3787585747234D-03
   220  2.1900000000000D+00 -2.6725063901615D-02  8.3033270253640D-03
   221  2.2000000000000D+00 -2.3308069451651D-02  7.3117986959617D-03
   222  2.2100000000000D+00 -2.0208503311391D-02  6.4020275084031D-03
   223  2.2200000000000D+00 -1.7411032850424D-02  5.5714787172107D-03
   224  2.2300000000000D+00 -1.4899745790443D-02  4.8172719100961D-03
   225  2.2400000000000D+00 -1.2658273845550D-02  4.1362240638300D-03
   226  2.2500000000000D+00 -1.0669915637877D-02  3.5248926238468D-03
   227  2.2600000000000D+00 -8.9177581136192D-03  2.9796182919150D-03
   228  2.2700000000000D+00 -7.3847952716886D-03  2.4965670541503D-03
   229  2.2800000000000D+00 -6.0540447938313D-03  2.0717717071833D-03
   230  2.2900000000000D+00 -4.9086606920556D-03  1.7011721450182D-03
   231  2.3000000000000D+00 -3.9320417054393D-03  1.3806543140364D-03
   232  2.3100000000000D+00 -3.1079363266323D-03  1.1060881749887D-03
   233  2.3200000000000D+00 -2.4205411017626D-03  8.7336339923577D-04
   234  2.3300000000000D+00 -1.8545940848584D-03  6.7842351392575D-04
   235  2.3400000000000D+00 -1.3954630380975D-03  5.1729833744133D-04
   236  2.3500000000000D+00 -1.0292250855879D-03  3.8613347943590D-04
   237  2.3600000000000D+00 -7.4274115671671D-04  2.8121814294901D-04
   238  2.3700000000000D+00 -5.2372295802455D-04  1.9901038789918D-04
   239  2.3800000000000D+00 -3.6083261897774D-04  1.3615966957615D-04
   240  2.3900000000000D+00 -2.4360485103241D-04  8.9525686910682D-05
   241  2.4000000000000D+00 -1.6254228094386D-04  5.6195895467927D-05
   242  2.4100000000000D+00 -1.0892099056427D-04  3.3473491999923D-05
   243  2.4200000000000D+00 -7.6072316118020D-05  1.8983688860409D-05
   244  2.4300000000000D+00 -5.8348708323258D-05  1.0606525011020D-05
   245  2.4400000000000D+00 -5.1850971658326D-05  6.6006840394677D-06
   246  2.4500000000000D+00 -4.9167267026948D-05  5.0171708317428D-06
   247  2.4600000000000D+00 -4.4365763564132D-05  4.2956138390476D-06
   248  2.4700000000000D+00 -3.1309529166782D-05  3.0447533112172D-06
   249  2.4800000000000D+00 -1.5049146721142D-05  1.4994808773257D-06
   250  2.4900000000000D+00 -6.5138306435580D-07  6.6797540489094D-08
   251  2.5000000000000D+00  4.3176247015898D-06 -4.0541852044572D-07
   252  2.5100000000000D+00  3.6157762487107D-06 -3.4143747377139D-07
   253  2.5200000000000D+00  1.6537688522232D-07 -1.5713524859295D-08
   254  2.5300000000000D+00 -9.0836264801603D-07  7.7710681190972D-08
   255  2.5400000000000D+00 -8.5033985023505D-07  7.2307976658845D-08
   256  2.5500000000000D+00 -6.3830053818436D-08  5.4000653997088D-09
   257  2.5600000000000D+00  1.0690080455778D-07 -1.0358886468025D-08
   258  2.5700000000000D+00  1.0960133064039D-07 -1.0620572460094D-08
   259  2.5800000000000D+00  1.5429457302605D-08 -1.4951430639096D-09
   260  2.5900000000000D+00  0.0000000000000D+00  0.0000000000000D+00
   261  2.6000000000000D+00  0.0000000000000D+00  0.0000000000000D+00
   262  2.6100000000000D+00  0.0000000000000D+00  0.0000000000000D+00
   263  2.6200000000000D+00  0.0000000000000D+00  0.0000000000000D+00
   264  2.6300000000000D+00  0.0000000000000D+00  0.0000000000000D+00
   265  2.6400000000000D+00  0.0000000000000D+00  0.0000000000000D+00
   266  2.6500000000000D+00  0.0000000000000D+00  0.0000000000000D+00
   267  2.6600000000000D+00  0.0000000000000D+00  0.0000000000000D+00
   268  2.6700000000000D+00  0.0000000000000D+00  0.0000000000000D+00
   269  2.6800000000000D+00  0.0000000000000D+00  0.0000000000000D+00
   270  2.6900000000000D+00  0.0000000000000D+00  0.0000000000000D+00
   271  2.7000000000000D+00  0.0000000000000D+00  0.0000000000000D+00
   272  2.7100000000000D+00  0.0000000000000D+00  0.0000000000000D+00
   273  2.7200000000000D+00  0.0000000000000D+00  0.0000000000000D+00
   274  2.7300000000000D+00  0.0000000000000D+00  0.0000000000000D+00
   275  2.7400000000000D+00  0.0000000000000D+00  0.0000000000000D+00
   276  2.7500000000000D+00  0.0000000000000D+00  0.0000000000000D+00
   277  2.7600000000000D+00  0.0000000000000D+00  0.0000000000000D+00
   278  2.7700000000000D+00  0.0000000000000D+00  0.0000000000000D+00
   279  2.7800000000000D+00  0.0000000000000D+00  0.0000000000000D+00
   280  2.7900000000000D+00  0.0000000000000D+00  0.0000000000000D+00
   281  2.8000000000000D+00  0.0000000000000D+00  0.0000000000000D+00
   282  2.8100000000000D+00  0.0000000000000D+00  0.0000000000000D+00
   283  2.8200000000000D+00  0.0000000000000D+00  0.0000000000000D+00
   284  2.8300000000000D+00  0.0000000000000D+00  0.0000000000000D+00
   285  2.8400000000000D+00  0.0000000000000D+00  0.0000000000000D+00
   286  2.8500000000000D+00  0.0000000000000D+00  0.0000000000000D+00
   287  2.8600000000000D+00  0.0000000000000D+00  0.0000000000000D+00
   288  2.8700000000000D+00  0.0000000000000D+00  0.0000000000000D+00
   289  2.8800000000000D+00  0.0000000000000D+00  0.0000000000000D+00
   290  2.8900000000000D+00  0.0000000000000D+00  0.0000000000000D+00
   291  2.9000000000000D+00  0.0000000000000D+00  0.0000000000000D+00
   292  2.9100000000000D+00  0.0000000000000D+00  0.0000000000000D+00
   293  2.9200000000000D+00  0.0000000000000D+00  0.0000000000000D+00
   294  2.9300000000000D+00  0.0000000000000D+00  0.0000000000000D+00
   295  2.9400000000000D+00  0.0000000000000D+00  0.0000000000000D+00
   296  2.9500000000000D+00  0.0000000000000D+00  0.0000000000000D+00
   297  2.9600000000000D+00  0.0000000000000D+00  0.0000000000000D+00
   298  2.9700000000000D+00  0.0000000000000D+00  0.0000000000000D+00
   299  2.9800000000000D+00  0.0000000000000D+00  0.0000000000000D+00
   300  2.9900000000000D+00  0.0000000000000D+00  0.0000000000000D+00
   301  3.0000000000000D+00  0.0000000000000D+00  0.0000000000000D+00
   302  3.0100000000000D+00  0.0000000000000D+00  0.0000000000000D+00
   303  3.0200000000000D+00  0.0000000000000D+00  0.0000000000000D+00
   304  3.0300000000000D+00  0.0000000000000D+00  0.0000000000000D+00
   305  3.0400000000000D+00  0.0000000000000D+00  0.0000000000000D+00
   306  3.0500000000000D+00  0.0000000000000D+00  0.0000000000000D+00
   307  3.0600000000000D+00  0.0000000000000D+00  0.0000000000000D+00
   308  3.0700000000000D+00  0.0000000000000D+00  0.0000000000000D+00
   309  3.0800000000000D+00  0.0000000000000D+00  0.0000000000000D+00
   310  3.0900000000000D+00  0.0000000000000D+00  0.0000000000000D+00
   311  3.1000000000000D+00  0.0000000000000D+00  0.0000000000000D+00
   312  3.1100000000000D+00  0.0000000000000D+00  0.0000000000000D+00
   313  3.1200000000000D+00  0.0000000000000D+00  0.0000000000000D+00
   314  3.1300000000000D+00  0.0000000000000D+00  0.0000000000000D+00
   315  3.1400000000000D+00  0.0000000000000D+00  0.0000000000000D+00
   316  3.1500000000000D+00  0.0000000000000D+00  0.0000000000000D+00
   317  3.1600000000000D+00  0.0000000000000D+00  0.0000000000000D+00
   318  3.1700000000000D+00  0.0000000000000D+00  0.0000000000000D+00
   319  3.1800000000000D+00  0.0000000000000D+00  0.0000000000000D+00
   320  3.1900000000000D+00  0.0000000000000D+00  0.0000000000000D+00
   321  3.2000000000000D+00  0.0000000000000D+00  0.0000000000000D+00
   322  3.2100000000000D+00  0.0000000000000D+00  0.0000000000000D+00
   323  3.2200000000000D+00  0.0000000000000D+00  0.0000000000000D+00
   324  3.2300000000000D+00  0.0000000000000D+00  0.0000000000000D+00
   325  3.2400000000000D+00  0.0000000000000D+00  0.0000000000000D+00
   326  3.2500000000000D+00  0.0000000000000D+00  0.0000000000000D+00
   327  3.2600000000000D+00  0.0000000000000D+00  0.0000000000000D+00
   328  3.2700000000000D+00  0.0000000000000D+00  0.0000000000000D+00
   329  3.2800000000000D+00  0.0000000000000D+00  0.0000000000000D+00
   330  3.2900000000000D+00  0.0000000000000D+00  0.0000000000000D+00
   331  3.3000000000000D+00  0.0000000000000D+00  0.0000000000000D+00
   332  3.3100000000000D+00  0.0000000000000D+00  0.0000000000000D+00
   333  3.3200000000000D+00  0.0000000000000D+00  0.0000000000000D+00
   334  3.3300000000000D+00  0.0000000000000D+00  0.0000000000000D+00
   335  3.3400000000000D+00  0.0000000000000D+00  0.0000000000000D+00
   336  3.3500000000000D+00  0.0000000000000D+00  0.0000000000000D+00
   337  3.3600000000000D+00  0.0000000000000D+00  0.0000000000000D+00
   338  3.3700000000000D+00  0.0000000000000D+00  0.0000000000000D+00
   339  3.3800000000000D+00  0.0000000000000D+00  0.0000000000000D+00
   340  3.3900000000000D+00  0.0000000000000D+00  0.0000000000000D+00
   341  3.4000000000000D+00  0.0000000000000D+00  0.0000000000000D+00
   342  3.4100000000000D+00  0.0000000000000D+00  0.0000000000000D+00
   343  3.4200000000000D+00  0.0000000000000D+00  0.0000000000000D+00
   344  3.4300000000000D+00  0.0000000000000D+00  0.0000000000000D+00
   345  3.4400000000000D+00  0.0000000000000D+00  0.0000000000000D+00
   346  3.4500000000000D+00  0.0000000000000D+00  0.0000000000000D+00
   347  3.4600000000000D+00  0.0000000000000D+00  0.0000000000000D+00
   348  3.4700000000000D+00  0.0000000000000D+00  0.0000000000000D+00
   349  3.4800000000000D+00  0.0000000000000D+00  0.0000000000000D+00
   350  3.4900000000000D+00  0.0000000000000D+00  0.0000000000000D+00
   351  3.5000000000000D+00  0.0000000000000D+00  0.0000000000000D+00
   352  3.5100000000000D+00  0.0000000000000D+00  0.0000000000000D+00
   353  3.5200000000000D+00  0.0000000000000D+00  0.0000000000000D+00
   354  3.5300000000000D+00  0.0000000000000D+00  0.0000000000000D+00
   355  3.5400000000000D+00  0.0000000000000D+00  0.0000000000000D+00
   356  3.5500000000000D+00  0.0000000000000D+00  0.0000000000000D+00
   357  3.5600000000000D+00  0.0000000000000D+00  0.0000000000000D+00
   358  3.5700000000000D+00  0.0000000000000D+00  0.0000000000000D+00
   359  3.5800000000000D+00  0.0000000000000D+00  0.0000000000000D+00
   360  3.5900000000000D+00  0.0000000000000D+00  0.0000000000000D+00
   361  3.6000000000000D+00  0.0000000000000D+00  0.0000000000000D+00
   362  3.6100000000000D+00  0.0000000000000D+00  0.0000000000000D+00
   363  3.6200000000000D+00  0.0000000000000D+00  0.0000000000000D+00
   364  3.6300000000000D+00  0.0000000000000D+00  0.0000000000000D+00
   365  3.6400000000000D+00  0.0000000000000D+00  0.0000000000000D+00
   366  3.6500000000000D+00  0.0000000000000D+00  0.0000000000000D+00
   367  3.6600000000000D+00  0.0000000000000D+00  0.0000000000000D+00
   368  3.6700000000000D+00  0.0000000000000D+00  0.0000000000000D+00
   369  3.6800000000000D+00  0.0000000000000D+00  0.0000000000000D+00
   370  3.6900000000000D+00  0.0000000000000D+00  0.0000000000000D+00
   371  3.7000000000000D+00  0.0000000000000D+00  0.0000000000000D+00
   372  3.7100000000000D+00  0.0000000000000D+00  0.0000000000000D+00
   373  3.7200000000000D+00  0.0000000000000D+00  0.0000000000000D+00
   374  3.7300000000000D+00  0.0000000000000D+00  0.0000000000000D+00
   375  3.7400000000000D+00  0.0000000000000D+00  0.0000000000000D+00
   376  3.7500000000000D+00  0.0000000000000D+00  0.0000000000000D+00
   377  3.7600000000000D+00  0.0000000000000D+00  0.0000000000000D+00
   378  3.7700000000000D+00  0.0000000000000D+00  0.0000000000000D+00
   379  3.7800000000000D+00  0.0000000000000D+00  0.0000000000000D+00
   380  3.7900000000000D+00  0.0000000000000D+00  0.0000000000000D+00
   381  3.8000000000000D+00  0.0000000000000D+00  0.0000000000000D+00
   382  3.8100000000000D+00  0.0000000000000D+00  0.0000000000000D+00
   383  3.8200000000000D+00  0.0000000000000D+00  0.0000000000000D+00
   384  3.8300000000000D+00  0.0000000000000D+00  0.0000000000000D+00
   385  3.8400000000000D+00  0.0000000000000D+00  0.0000000000000D+00
   386  3.8500000000000D+00  0.0000000000000D+00  0.0000000000000D+00
   387  3.8600000000000D+00  0.0000000000000D+00  0.0000000000000D+00
   388  3.8700000000000D+00  0.0000000000000D+00  0.0000000000000D+00
   389  3.8800000000000D+00  0.0000000000000D+00  0.0000000000000D+00
   390  3.8900000000000D+00  0.0000000000000D+00  0.0000000000000D+00
   391  3.9000000000000D+00  0.0000000000000D+00  0.0000000000000D+00
   392  3.9100000000000D+00  0.0000000000000D+00  0.0000000000000D+00
   393  3.9200000000000D+00  0.0000000000000D+00  0.0000000000000D+00
   394  3.9300000000000D+00  0.0000000000000D+00  0.0000000000000D+00
   395  3.9400000000000D+00  0.0000000000000D+00  0.0000000000000D+00
   396  3.9500000000000D+00  0.0000000000000D+00  0.0000000000000D+00
   397  3.9600000000000D+00  0.0000000000000D+00  0.0000000000000D+00
   398  3.9700000000000D+00  0.0000000000000D+00  0.0000000000000D+00
   399  3.9800000000000D+00  0.0000000000000D+00  0.0000000000000D+00
   400  3.9900000000000D+00  0.0000000000000D+00  0.0000000000000D+00
   401  4.0000000000000D+00  0.0000000000000D+00  0.0000000000000D+00
   402  4.0100000000000D+00  0.0000000000000D+00  0.0000000000000D+00
   403  4.0200000000000D+00  0.0000000000000D+00  0.0000000000000D+00
   404  4.0300000000000D+00  0.0000000000000D+00  0.0000000000000D+00
   405  4.0400000000000D+00  0.0000000000000D+00  0.0000000000000D+00
   406  4.0500000000000D+00  0.0000000000000D+00  0.0000000000000D+00
   407  4.0600000000000D+00  0.0000000000000D+00  0.0000000000000D+00
   408  4.0700000000000D+00  0.0000000000000D+00  0.0000000000000D+00
   409  4.0800000000000D+00  0.0000000000000D+00  0.0000000000000D+00
   410  4.0900000000000D+00  0.0000000000000D+00  0.0000000000000D+00
   411  4.1000000000000D+00  0.0000000000000D+00  0.0000000000000D+00
   412  4.1100000000000D+00  0.0000000000000D+00  0.0000000000000D+00
   413  4.1200000000000D+00  0.0000000000000D+00  0.0000000000000D+00
   414  4.1300000000000D+00  0.0000000000000D+00  0.0000000000000D+00
   415  4.1400000000000D+00  0.0000000000000D+00  0.0000000000000D+00
   416  4.1500000000000D+00  0.0000000000000D+00  0.0000000000000D+00
   417  4.1600000000000D+00  0.0000000000000D+00  0.0000000000000D+00
   418  4.1700000000000D+00  0.0000000000000D+00  0.0000000000000D+00
   419  4.1800000000000D+00  0.0000000000000D+00  0.0000000000000D+00
   420  4.1900000000000D+00  0.0000000000000D+00  0.0000000000000D+00
   421  4.2000000000000D+00  0.0000000000000D+00  0.0000000000000D+00
   422  4.2100000000000D+00  0.0000000000000D+00  0.0000000000000D+00