B     ONCVPSP-3.3.1  r_core=   1.77019   1.90153
      5.0000      3.0000      210904    zatom,zion,pspd
     8      11   1     4   600     0    pspcod,pspxc,lmax,lloc,mmax,r2well
  5.99000000  0.00000000  0.00000000    rchrg fchrg qchrg
     2     2     0     0    nproj
     3     1           extension_switch
     2     0     0    nprojso
   0                         1.9012256834172D-01  4.3268605868231D+00
     1  0.0000000000000D+00  2.3017248870771D-10 -3.9590442035831D-11
     2  1.0000000000000D-02  1.9807617028995D-03  5.3554900501940D-02
     3  2.0000000000000D-02  3.9551579193469D-03  1.0702838119032D-01
     4  3.0000000000000D-02  5.9166114083361D-03  1.6033924127604D-01
     5  4.0000000000000D-02  7.8581259961602D-03  2.1340671682887D-01
     6  5.0000000000000D-02  9.7720884919220D-03  2.6615069624198D-01
     7  6.0000000000000D-02  1.1650084096423D-02  3.1849193216676D-01
     8  7.0000000000000D-02  1.3482729529315D-02  3.7035224878834D-01
     9  8.0000000000000D-02  1.5259527869233D-02  4.2165474335171D-01
    10  9.0000000000000D-02  1.6968748818903D-02  4.7232398089698D-01
    11  1.0000000000000D-01  1.8597337774518D-02  5.2228618122006D-01
    12  1.1000000000000D-01  2.0130856699825D-02  5.7146939714053D-01
    13  1.2000000000000D-01  2.1553459385236D-02  6.1980368323149D-01
    14  1.3000000000000D-01  2.2847903213749D-02  6.6722125424664D-01
    15  1.4000000000000D-01  2.3995599065630D-02  7.1365663256538D-01
    16  1.5000000000000D-01  2.4976700476666D-02  7.5904678406845D-01
    17  1.6000000000000D-01  2.5770232626473D-02  8.0333124195201D-01
    18  1.7000000000000D-01  2.6354261179886D-02  8.4645221808757D-01
    19  1.8000000000000D-01  2.6706100442554D-02  8.8835470163625D-01
    20  1.9000000000000D-01  2.6802559726238D-02  9.2898654472964D-01
    21  2.0000000000000D-01  2.6620226258766D-02  9.6829853513274D-01
    22  2.1000000000000D-01  2.6135782422082D-02  1.0062444559080D+00
    23  2.2000000000000D-01  2.5326354568091D-02  1.0427811322011D+00
    24  2.3000000000000D-01  2.4169890149086D-02  1.0778684653688D+00
    25  2.4000000000000D-01  2.2645559418347D-02  1.1114694547644D+00
    26  2.5000000000000D-01  2.0734177506739D-02  1.1435502075899D+00
    27  2.6000000000000D-01  1.8418642273840D-02  1.1740799373079D+00
    28  2.7000000000000D-01  1.5684382968919D-02  1.2030309511897D+00
    29  2.8000000000000D-01  1.2519814423928D-02  1.2303786276479D+00
    30  2.9000000000000D-01  8.9167912415598D-03  1.2561013840691D+00
    31  3.0000000000000D-01  4.8710562406249D-03  1.2801806359206D+00
    32  3.1000000000000D-01  3.8267727973895D-04  1.3026007479553D+00
    33  3.2000000000000D-01 -4.5435334957075D-03  1.3233489783788D+00
    34  3.3000000000000D-01 -9.8976239508026D-03  1.3424154168741D+00
    35  3.4000000000000D-01 -1.5664135715002D-02  1.3597929174018D+00
    36  3.5000000000000D-01 -2.1821773183368D-02  1.3754770267055D+00
    37  3.6000000000000D-01 -2.8343113366915D-02  1.3894659094517D+00
    38  3.7000000000000D-01 -3.5194361939458D-02  1.4017602709282D+00
    39  3.8000000000000D-01 -4.2335160508821D-02  1.4123632782054D+00
    40  3.9000000000000D-01 -4.9718449758098D-02  1.4212804806375D+00
    41  4.0000000000000D-01 -5.7290392662641D-02  1.4285197305439D+00
    42  4.1000000000000D-01 -6.4990361489961D-02  1.4340911048660D+00
    43  4.2000000000000D-01 -7.2750991741971D-02  1.4380068285394D+00
    44  4.3000000000000D-01 -8.0498305602552D-02  1.4402812002600D+00
    45  4.4000000000000D-01 -8.8151906815237D-02  1.4409305212551D+00
    46  4.5000000000000D-01 -9.5625248242749D-02  1.4399730275927D+00
    47  4.6000000000000D-01 -1.0282597265612D-01  1.4374288264837D+00
    48  4.7000000000000D-01 -1.0965632657346D-01  1.4333198369454D+00
    49  4.8000000000000D-01 -1.1601364622664D-01  1.4276697351048D+00
    50  4.9000000000000D-01 -1.2179091398071D-01  1.4205039043305D+00
    51  5.0000000000000D-01 -1.2687738277670D-01  1.4118493902852D+00
    52  5.1000000000000D-01 -1.3115926542095D-01  1.4017348608996D+00
    53  5.2000000000000D-01 -1.3452048480850D-01  1.3901905711721D+00
    54  5.3000000000000D-01 -1.3684348045373D-01  1.3772483326067D+00
    55  5.4000000000000D-01 -1.3801006601662D-01  1.3629414870119D+00
    56  5.5000000000000D-01 -1.3790233186106D-01  1.3473048842956D+00
    57  5.6000000000000D-01 -1.3640358607668D-01  1.3303748638074D+00
    58  5.7000000000000D-01 -1.3339932683413D-01  1.3121892387061D+00
    59  5.8000000000000D-01 -1.2877823844458D-01  1.2927872827541D+00
    60  5.9000000000000D-01 -1.2243320305068D-01  1.2722097188805D+00
    61  6.0000000000000D-01 -1.1426231950391D-01  1.2504987087974D+00
    62  6.1000000000000D-01 -1.0416992068033D-01  1.2276978429051D+00
    63  6.2000000000000D-01 -9.2067580260736D-02  1.2038521296853D+00
    64  6.3000000000000D-01 -7.7875099854469D-02  1.1790079837516D+00
    65  6.4000000000000D-01 -6.1521467282418D-02  1.1532132117088D+00
    66  6.5000000000000D-01 -4.2945776853260D-02  1.1265169949629D+00
    67  6.6000000000000D-01 -2.2098102573963D-02  1.0989698686288D+00
    68  6.7000000000000D-01  1.0596845728532D-03  1.0706236956931D+00
    69  6.8000000000000D-01  2.6553163876032D-02  1.0415316356160D+00
    70  6.9000000000000D-01  5.4394684894941D-02  1.0117481065903D+00
    71  7.0000000000000D-01  8.4582767994187D-02  9.8132874071952D-01
    72  7.1000000000000D-01  1.1710159267229D-01  9.5033033143599D-01
    73  7.2000000000000D-01  1.5192058034419D-01  9.1881077254115D-01
    74  7.3000000000000D-01  1.8899407756071D-01  8.8682898832778D-01
    75  7.4000000000000D-01  2.2826114491180D-01  8.5444485432519D-01
    76  7.5000000000000D-01  2.6964545605799D-01  8.2171910830007D-01
    77  7.6000000000000D-01  3.1305531047979D-01  7.8871325124294D-01
    78  7.7000000000000D-01  3.5838376262999D-01  7.5548943817461D-01
    79  7.8000000000000D-01  4.0550886923464D-01  7.2211035871540D-01
    80  7.9000000000000D-01  4.5429405550826D-01  6.8863910747351D-01
    81  8.0000000000000D-01  5.0458860005335D-01  6.5513904442469D-01
    82  8.1000000000000D-01  5.5622823719909D-01  6.2167364557313D-01
    83  8.2000000000000D-01  6.0903587451496D-01  5.8830634430209D-01
    84  8.3000000000000D-01  6.6282242221843D-01  5.5510036394049D-01
    85  8.4000000000000D-01  7.1738773019117D-01  5.2211854218818D-01
    86  8.5000000000000D-01  7.7252162733701D-01  4.8942314815511D-01
    87  8.6000000000000D-01  8.2800505706254D-01  4.5707569287925D-01
    88  8.7000000000000D-01  8.8361130174957D-01  4.2513673429113D-01
    89  8.8000000000000D-01  9.3910728822564D-01  3.9366567769028D-01
    90  8.9000000000000D-01  9.9425496543155D-01  3.6272057288815D-01
    91  9.0000000000000D-01  1.0488127447435D+00  3.3235790925317D-01
    92  9.1000000000000D-01  1.1025369927373D+00  3.0263240996467D-01
    93  9.2000000000000D-01  1.1551835655899D+00  2.7359682684354D-01
    94  9.3000000000000D-01  1.2065093738088D+00  2.4530173717686D-01
    95  9.4000000000000D-01  1.2562739655629D+00  2.1779534399172D-01
    96  9.5000000000000D-01  1.3042411165662D+00  1.9112328125857D-01
    97  9.6000000000000D-01  1.3501804142474D+00  1.6532842551639D-01
    98  9.7000000000000D-01  1.3938688238115D+00  1.4045071541174D-01
    99  9.8000000000000D-01  1.4350922237888D+00  1.1652698062824D-01
   100  9.9000000000000D-01  1.4736468987496D+00  9.3590781655461D-02
   101  1.0000000000000D+00  1.5093409770585D+00  7.1672261804216D-02
   102  1.0100000000000D+00  1.5419958018371D+00  5.0798012820091D-02
   103  1.0200000000000D+00  1.5714472237041D+00  3.0990955378599D-02
   104  1.0300000000000D+00  1.5975468043694D+00  1.2270235663027D-02
   105  1.0400000000000D+00  1.6201629207190D+00 -5.3488608621044D-03
   106  1.0500000000000D+00  1.6391817597632D+00 -2.1854977481017D-02
   107  1.0600000000000D+00  1.6545081955535D+00 -3.7240735168907D-02
   108  1.0700000000000D+00  1.6660665400297D+00 -5.1502761680890D-02
   109  1.0800000000000D+00  1.6738011607443D+00 -6.4641700164790D-02
   110  1.0900000000000D+00  1.6776769592416D+00 -7.6662196793852D-02
   111  1.1000000000000D+00  1.6776797051061D+00 -8.7572867090978D-02
   112  1.1100000000000D+00  1.6738162216486D+00 -9.7386240749327D-02
   113  1.1200000000000D+00  1.6661144204251D+00 -1.0611868492441D-01
   114  1.1300000000000D+00  1.6546231828354D+00 -1.1379030611809D-01
   115  1.1400000000000D+00  1.6394120882697D+00 -1.2042483094136D-01
   116  1.1500000000000D+00  1.6205709895026D+00 -1.2604946620965D-01
   117  1.1600000000000D+00  1.5982094372067D+00 -1.3069473898105D-01
   118  1.1700000000000D+00  1.5724559564788D+00 -1.3439431728365D-01
   119  1.1800000000000D+00  1.5434571795544D+00 -1.3718481244782D-01
   120  1.1900000000000D+00  1.5113768399828D+00 -1.3910556410093D-01
   121  1.2000000000000D+00  1.4763946346699D+00 -1.4019840902709D-01
   122  1.2100000000000D+00  1.4387049607732D+00 -1.4050743516894D-01
   123  1.2200000000000D+00  1.3985155360154D+00 -1.4007872224619D-01
   124  1.2300000000000D+00  1.3560459114742D+00 -1.3896007052180D-01
   125  1.2400000000000D+00  1.3115258865884D+00 -1.3720071933026D-01
   126  1.2500000000000D+00  1.2651938371124D+00 -1.3485105709832D-01
   127  1.2600000000000D+00  1.2172949672780D+00 -1.3196232464080D-01
   128  1.2700000000000D+00  1.1680794977215D+00 -1.2858631354469D-01
   129  1.2800000000000D+00  1.1178008013773D+00 -1.2477506152203D-01
   130  1.2900000000000D+00  1.0667134997707D+00 -1.2058054661307D-01
   131  1.3000000000000D+00  1.0150715321618D+00 -1.1605438211852D-01
   132  1.3100000000000D+00  9.6312621034491D-01 -1.1124751416144D-01
   133  1.3200000000000D+00  9.1112427152085D-01 -1.0620992368718D-01
   134  1.3300000000000D+00  8.5930594176124D-01 -1.0099033473079D-01
   135  1.3400000000000D+00  8.0790302235547D-01 -9.5635930705632D-02
   136  1.3500000000000D+00  7.5713700668688D-01 -9.0192080091215D-02
   137  1.3600000000000D+00  7.0721726298166D-01 -8.4702074486669D-02
   138  1.3700000000000D+00  6.5833919662568D-01 -7.9206874971997D-02
   139  1.3800000000000D+00  6.1068277563522D-01 -7.3744889678461D-02
   140  1.3900000000000D+00  5.6441042412312D-01 -6.8351725680368D-02
   141  1.4000000000000D+00  5.1966561294105D-01 -6.3059994202255D-02
   142  1.4100000000000D+00  4.7657412099705D-01 -5.7899266451842D-02
   143  1.4200000000000D+00  4.3524520109812D-01 -5.2896063937751D-02
   144  1.4300000000000D+00  3.9577356622391D-01 -4.8073928131520D-02
   145  1.4400000000000D+00  3.5823888022849D-01 -4.3453377728418D-02
   146  1.4500000000000D+00  3.2270514588177D-01 -3.9051881878549D-02
   147  1.4600000000000D+00  2.8922080579172D-01 -3.4883881205826D-02
   148  1.4700000000000D+00  2.5781869371544D-01 -3.0960818852278D-02
   149  1.4800000000000D+00  2.2851621366636D-01 -2.7291198081893D-02
   150  1.4900000000000D+00  2.0131563075286D-01 -2.3880660763540D-02
   151  1.5000000000000D+00  1.7620449724009D-01 -2.0732086936521D-02
   152  1.5100000000000D+00  1.5315621002533D-01 -1.7845715130608D-02
   153  1.5200000000000D+00  1.3213068818555D-01 -1.5219281533854D-02
   154  1.5300000000000D+00  1.1307516872092D-01 -1.2848177500315D-02
   155  1.5400000000000D+00  9.5925109286518D-02 -1.0725623509171D-02
   156  1.5500000000000D+00  8.0605191090467D-02 -8.8428583399077D-03
   157  1.5600000000000D+00  6.7030411849340D-02 -7.1893417377915D-03
   158  1.5700000000000D+00  5.5107257661493D-02 -5.7529687111408D-03
   159  1.5800000000000D+00  4.4734944359673D-02 -4.5202938236525D-03
   160  1.5900000000000D+00  3.5806714388198D-02 -3.4767632354737D-03
   161  1.6000000000000D+00  2.8211179491392D-02 -2.6069528011919D-03
   162  1.6100000000000D+00  2.1833694320772D-02 -1.8948098781942D-03
   163  1.6200000000000D+00  1.6557749907357D-02 -1.3238969419443D-03
   164  1.6300000000000D+00  1.2266373031589D-02 -8.7763483342053D-04
   165  1.6400000000000D+00  8.8435184452894D-03 -5.3954344201039D-04
   166  1.6500000000000D+00  6.1754420295538D-03 -2.9347797612604D-04
   167  1.6600000000000D+00  4.1520401432710D-03 -1.2385838630378D-04
   168  1.6700000000000D+00  2.6681456310817D-03 -1.5890468549359D-05
   169  1.6800000000000D+00  1.6247646197969D-03  4.4223936249709D-05
   170  1.6900000000000D+00  9.3024740944334D-04  6.9088675851126D-05
   171  1.7000000000000D+00  5.0137680467074D-04  6.9929641734197D-05
   172  1.7100000000000D+00  2.6446107803157D-04  5.6414088175174D-05
   173  1.7200000000000D+00  1.5609759517491D-04  3.6518203209280D-05
   174  1.7300000000000D+00  1.2285575214446D-04  1.6526108487777D-05
   175  1.7400000000000D+00  1.2418062436396D-04  6.2374382835372D-07
   176  1.7500000000000D+00  1.3784101751059D-04 -9.5585820352057D-06
   177  1.7600000000000D+00  1.4962572597472D-04 -1.3971763998915D-05
   178  1.7700000000000D+00  1.3268866511377D-04 -1.2693213492082D-05
   179  1.7800000000000D+00  7.1180199194168D-05 -6.7478995997255D-06
   180  1.7900000000000D+00  7.1059495442824D-06 -6.6089508164765D-07
   181  1.8000000000000D+00 -1.3866666412072D-05  1.3466445982468D-06
   182  1.8100000000000D+00 -4.6358606732852D-06  4.4955492405501D-07
   183  1.8200000000000D+00  2.8736492069116D-06 -2.8514839504423D-07
   184  1.8300000000000D+00  1.7969509246103D-06 -1.7869085941713D-07
   185  1.8400000000000D+00 -2.7927880840579D-07  2.6703452049977D-08
   186  1.8500000000000D+00 -2.9272211407206D-07  2.7988843771252D-08
   187  1.8600000000000D+00  0.0000000000000D+00  0.0000000000000D+00
   188  1.8700000000000D+00  0.0000000000000D+00  0.0000000000000D+00
   189  1.8800000000000D+00  0.0000000000000D+00  0.0000000000000D+00
   190  1.8900000000000D+00  0.0000000000000D+00  0.0000000000000D+00
   191  1.9000000000000D+00  0.0000000000000D+00  0.0000000000000D+00
   192  1.9100000000000D+00  0.0000000000000D+00  0.0000000000000D+00
   193  1.9200000000000D+00  0.0000000000000D+00  0.0000000000000D+00
   194  1.9300000000000D+00  0.0000000000000D+00  0.0000000000000D+00
   195  1.9400000000000D+00  0.0000000000000D+00  0.0000000000000D+00
   196  1.9500000000000D+00  0.0000000000000D+00  0.0000000000000D+00
   197  1.9600000000000D+00  0.0000000000000D+00  0.0000000000000D+00
   198  1.9700000000000D+00  0.0000000000000D+00  0.0000000000000D+00
   199  1.9800000000000D+00  0.0000000000000D+00  0.0000000000000D+00
   200  1.9900000000000D+00  0.0000000000000D+00  0.0000000000000D+00
   201  2.0000000000000D+00  0.0000000000000D+00  0.0000000000000D+00
   202  2.0100000000000D+00  0.0000000000000D+00  0.0000000000000D+00
   203  2.0200000000000D+00  0.0000000000000D+00  0.0000000000000D+00
   204  2.0300000000000D+00  0.0000000000000D+00  0.0000000000000D+00
   205  2.0400000000000D+00  0.0000000000000D+00  0.0000000000000D+00
   206  2.0500000000000D+00  0.0000000000000D+00  0.0000000000000D+00
   207  2.0600000000000D+00  0.0000000000000D+00  0.0000000000000D+00
   208  2.0700000000000D+00  0.0000000000000D+00  0.0000000000000D+00
   209  2.0800000000000D+00  0.0000000000000D+00  0.0000000000000D+00
   210  2.0900000000000D+00  0.0000000000000D+00  0.0000000000000D+00
   211  2.1000000000000D+00  0.0000000000000D+00  0.0000000000000D+00
   212  2.1100000000000D+00  0.0000000000000D+00  0.0000000000000D+00
   213  2.1200000000000D+00  0.0000000000000D+00  0.0000000000000D+00
   214  2.1300000000000D+00  0.0000000000000D+00  0.0000000000000D+00
   215  2.1400000000000D+00  0.0000000000000D+00  0.0000000000000D+00
   216  2.1500000000000D+00  0.0000000000000D+00  0.0000000000000D+00
   217  2.1600000000000D+00  0.0000000000000D+00  0.0000000000000D+00
   218  2.1700000000000D+00  0.0000000000000D+00  0.0000000000000D+00
   219  2.1800000000000D+00  0.0000000000000D+00  0.0000000000000D+00
   220  2.1900000000000D+00  0.0000000000000D+00  0.0000000000000D+00
   221  2.2000000000000D+00  0.0000000000000D+00  0.0000000000000D+00
   222  2.2100000000000D+00  0.0000000000000D+00  0.0000000000000D+00
   223  2.2200000000000D+00  0.0000000000000D+00  0.0000000000000D+00
   224  2.2300000000000D+00  0.0000000000000D+00  0.0000000000000D+00
   225  2.2400000000000D+00  0.0000000000000D+00  0.0000000000000D+00
   226  2.2500000000000D+00  0.0000000000000D+00  0.0000000000000D+00
   227  2.2600000000000D+00  0.0000000000000D+00  0.0000000000000D+00
   228  2.2700000000000D+00  0.0000000000000D+00  0.0000000000000D+00
   229  2.2800000000000D+00  0.0000000000000D+00  0.0000000000000D+00
   230  2.2900000000000D+00  0.0000000000000D+00  0.0000000000000D+00
   231  2.3000000000000D+00  0.0000000000000D+00  0.0000000000000D+00
   232  2.3100000000000D+00  0.0000000000000D+00  0.0000000000000D+00
   233  2.3200000000000D+00  0.0000000000000D+00  0.0000000000000D+00
   234  2.3300000000000D+00  0.0000000000000D+00  0.0000000000000D+00
   235  2.3400000000000D+00  0.0000000000000D+00  0.0000000000000D+00
   236  2.3500000000000D+00  0.0000000000000D+00  0.0000000000000D+00
   237  2.3600000000000D+00  0.0000000000000D+00  0.0000000000000D+00
   238  2.3700000000000D+00  0.0000000000000D+00  0.0000000000000D+00
   239  2.3800000000000D+00  0.0000000000000D+00  0.0000000000000D+00
   240  2.3900000000000D+00  0.0000000000000D+00  0.0000000000000D+00
   241  2.4000000000000D+00  0.0000000000000D+00  0.0000000000000D+00
   242  2.4100000000000D+00  0.0000000000000D+00  0.0000000000000D+00
   243  2.4200000000000D+00  0.0000000000000D+00  0.0000000000000D+00
   244  2.4300000000000D+00  0.0000000000000D+00  0.0000000000000D+00
   245  2.4400000000000D+00  0.0000000000000D+00  0.0000000000000D+00
   246  2.4500000000000D+00  0.0000000000000D+00  0.0000000000000D+00
   247  2.4600000000000D+00  0.0000000000000D+00  0.0000000000000D+00
   248  2.4700000000000D+00  0.0000000000000D+00  0.0000000000000D+00
   249  2.4800000000000D+00  0.0000000000000D+00  0.0000000000000D+00
   250  2.4900000000000D+00  0.0000000000000D+00  0.0000000000000D+00
   251  2.5000000000000D+00  0.0000000000000D+00  0.0000000000000D+00
   252  2.5100000000000D+00  0.0000000000000D+00  0.0000000000000D+00
   253  2.5200000000000D+00  0.0000000000000D+00  0.0000000000000D+00
   254  2.5300000000000D+00  0.0000000000000D+00  0.0000000000000D+00
   255  2.5400000000000D+00  0.0000000000000D+00  0.0000000000000D+00
   256  2.5500000000000D+00  0.0000000000000D+00  0.0000000000000D+00
   257  2.5600000000000D+00  0.0000000000000D+00  0.0000000000000D+00
   258  2.5700000000000D+00  0.0000000000000D+00  0.0000000000000D+00
   259  2.5800000000000D+00  0.0000000000000D+00  0.0000000000000D+00
   260  2.5900000000000D+00  0.0000000000000D+00  0.0000000000000D+00
   261  2.6000000000000D+00  0.0000000000000D+00  0.0000000000000D+00
   262  2.6100000000000D+00  0.0000000000000D+00  0.0000000000000D+00
   263  2.6200000000000D+00  0.0000000000000D+00  0.0000000000000D+00
   264  2.6300000000000D+00  0.0000000000000D+00  0.0000000000000D+00
   265  2.6400000000000D+00  0.0000000000000D+00  0.0000000000000D+00
   266  2.6500000000000D+00  0.0000000000000D+00  0.0000000000000D+00
   267  2.6600000000000D+00  0.0000000000000D+00  0.0000000000000D+00
   268  2.6700000000000D+00  0.0000000000000D+00  0.0000000000000D+00
   269  2.6800000000000D+00  0.0000000000000D+00  0.0000000000000D+00
   270  2.6900000000000D+00  0.0000000000000D+00  0.0000000000000D+00
   271  2.7000000000000D+00  0.0000000000000D+00  0.0000000000000D+00
   272  2.7100000000000D+00  0.0000000000000D+00  0.0000000000000D+00
   273  2.7200000000000D+00  0.0000000000000D+00  0.0000000000000D+00
   274  2.7300000000000D+00  0.0000000000000D+00  0.0000000000000D+00
   275  2.7400000000000D+00  0.0000000000000D+00  0.0000000000000D+00
   276  2.7500000000000D+00  0.0000000000000D+00  0.0000000000000D+00
   277  2.7600000000000D+00  0.0000000000000D+00  0.0000000000000D+00
   278  2.7700000000000D+00  0.0000000000000D+00  0.0000000000000D+00
   279  2.7800000000000D+00  0.0000000000000D+00  0.0000000000000D+00
   280  2.7900000000000D+00  0.0000000000000D+00  0.0000000000000D+00
   281  2.8000000000000D+00  0.0000000000000D+00  0.0000000000000D+00
   282  2.8100000000000D+00  0.0000000000000D+00  0.0000000000000D+00
   283  2.8200000000000D+00  0.0000000000000D+00  0.0000000000000D+00
   284  2.8300000000000D+00  0.0000000000000D+00  0.0000000000000D+00
   285  2.8400000000000D+00  0.0000000000000D+00  0.0000000000000D+00
   286  2.8500000000000D+00  0.0000000000000D+00  0.0000000000000D+00
   287  2.8600000000000D+00  0.0000000000000D+00  0.0000000000000D+00
   288  2.8700000000000D+00  0.0000000000000D+00  0.0000000000000D+00
   289  2.8800000000000D+00  0.0000000000000D+00  0.0000000000000D+00
   290  2.8900000000000D+00  0.0000000000000D+00  0.0000000000000D+00
   291  2.9000000000000D+00  0.0000000000000D+00  0.0000000000000D+00
   292  2.9100000000000D+00  0.0000000000000D+00  0.0000000000000D+00
   293  2.9200000000000D+00  0.0000000000000D+00  0.0000000000000D+00
   294  2.9300000000000D+00  0.0000000000000D+00  0.0000000000000D+00
   295  2.9400000000000D+00  0.0000000000000D+00  0.0000000000000D+00
   296  2.9500000000000D+00  0.0000000000000D+00  0.0000000000000D+00
   297  2.9600000000000D+00  0.0000000000000D+00  0.0000000000000D+00
   298  2.9700000000000D+00  0.0000000000000D+00  0.0000000000000D+00
   299  2.9800000000000D+00  0.0000000000000D+00  0.0000000000000D+00
   300  2.9900000000000D+00  0.0000000000000D+00  0.0000000000000D+00
   301  3.0000000000000D+00  0.0000000000000D+00  0.0000000000000D+00
   302  3.0100000000000D+00  0.0000000000000D+00  0.0000000000000D+00
   303  3.0200000000000D+00  0.0000000000000D+00  0.0000000000000D+00
   304  3.0300000000000D+00  0.0000000000000D+00  0.0000000000000D+00
   305  3.0400000000000D+00  0.0000000000000D+00  0.0000000000000D+00
   306  3.0500000000000D+00  0.0000000000000D+00  0.0000000000000D+00
   307  3.0600000000000D+00  0.0000000000000D+00  0.0000000000000D+00
   308  3.0700000000000D+00  0.0000000000000D+00  0.0000000000000D+00
   309  3.0800000000000D+00  0.0000000000000D+00  0.0000000000000D+00
   310  3.0900000000000D+00  0.0000000000000D+00  0.0000000000000D+00
   311  3.1000000000000D+00  0.0000000000000D+00  0.0000000000000D+00
   312  3.1100000000000D+00  0.0000000000000D+00  0.0000000000000D+00
   313  3.1200000000000D+00  0.0000000000000D+00  0.0000000000000D+00
   314  3.1300000000000D+00  0.0000000000000D+00  0.0000000000000D+00
   315  3.1400000000000D+00  0.0000000000000D+00  0.0000000000000D+00
   316  3.1500000000000D+00  0.0000000000000D+00  0.0000000000000D+00
   317  3.1600000000000D+00  0.0000000000000D+00  0.0000000000000D+00
   318  3.1700000000000D+00  0.0000000000000D+00  0.0000000000000D+00
   319  3.1800000000000D+00  0.0000000000000D+00  0.0000000000000D+00
   320  3.1900000000000D+00  0.0000000000000D+00  0.0000000000000D+00
   321  3.2000000000000D+00  0.0000000000000D+00  0.0000000000000D+00
   322  3.2100000000000D+00  0.0000000000000D+00  0.0000000000000D+00
   323  3.2200000000000D+00  0.0000000000000D+00  0.0000000000000D+00
   324  3.2300000000000D+00  0.0000000000000D+00  0.0000000000000D+00
   325  3.2400000000000D+00  0.0000000000000D+00  0.0000000000000D+00
   326  3.2500000000000D+00  0.0000000000000D+00  0.0000000000000D+00
   327  3.2600000000000D+00  0.0000000000000D+00  0.0000000000000D+00
   328  3.2700000000000D+00  0.0000000000000D+00  0.0000000000000D+00
   329  3.2800000000000D+00  0.0000000000000D+00  0.0000000000000D+00
   330  3.2900000000000D+00  0.0000000000000D+00  0.0000000000000D+00
   331  3.3000000000000D+00  0.0000000000000D+00  0.0000000000000D+00
   332  3.3100000000000D+00  0.0000000000000D+00  0.0000000000000D+00
   333  3.3200000000000D+00  0.0000000000000D+00  0.0000000000000D+00
   334  3.3300000000000D+00  0.0000000000000D+00  0.0000000000000D+00
   335  3.3400000000000D+00  0.0000000000000D+00  0.0000000000000D+00
   336  3.3500000000000D+00  0.0000000000000D+00  0.0000000000000D+00
   337  3.3600000000000D+00  0.0000000000000D+00  0.0000000000000D+00
   338  3.3700000000000D+00  0.0000000000000D+00  0.0000000000000D+00
   339  3.3800000000000D+00  0.0000000000000D+00  0.0000000000000D+00
   340  3.3900000000000D+00  0.0000000000000D+00  0.0000000000000D+00
   341  3.4000000000000D+00  0.0000000000000D+00  0.0000000000000D+00
   342  3.4100000000000D+00  0.0000000000000D+00  0.0000000000000D+00
   343  3.4200000000000D+00  0.0000000000000D+00  0.0000000000000D+00
   344  3.4300000000000D+00  0.0000000000000D+00  0.0000000000000D+00
   345  3.4400000000000D+00  0.0000000000000D+00  0.0000000000000D+00
   346  3.4500000000000D+00  0.0000000000000D+00  0.0000000000000D+00
   347  3.4600000000000D+00  0.0000000000000D+00  0.0000000000000D+00
   348  3.4700000000000D+00  0.0000000000000D+00  0.0000000000000D+00
   349  3.4800000000000D+00  0.0000000000000D+00  0.0000000000000D+00
   350  3.4900000000000D+00  0.0000000000000D+00  0.0000000000000D+00
   351  3.5000000000000D+00  0.0000000000000D+00  0.0000000000000D+00
   352  3.5100000000000D+00  0.0000000000000D+00  0.0000000000000D+00
   353  3.5200000000000D+00  0.0000000000000D+00  0.0000000000000D+00
   354  3.5300000000000D+00  0.0000000000000D+00  0.0000000000000D+00
   355  3.5400000000000D+00  0.0000000000000D+00  0.0000000000000D+00
   356  3.5500000000000D+00  0.0000000000000D+00  0.0000000000000D+00
   357  3.5600000000000D+00  0.0000000000000D+00  0.0000000000000D+00
   358  3.5700000000000D+00  0.0000000000000D+00  0.0000000000000D+00
   359  3.5800000000000D+00  0.0000000000000D+00  0.0000000000000D+00
   360  3.5900000000000D+00  0.0000000000000D+00  0.0000000000000D+00
   361  3.6000000000000D+00  0.0000000000000D+00  0.0000000000000D+00
   362  3.6100000000000D+00  0.0000000000000D+00  0.0000000000000D+00
   363  3.6200000000000D+00  0.0000000000000D+00  0.0000000000000D+00
   364  3.6300000000000D+00  0.0000000000000D+00  0.0000000000000D+00
   365  3.6400000000000D+00  0.0000000000000D+00  0.0000000000000D+00
   366  3.6500000000000D+00  0.0000000000000D+00  0.0000000000000D+00
   367  3.6600000000000D+00  0.0000000000000D+00  0.0000000000000D+00
   368  3.6700000000000D+00  0.0000000000000D+00  0.0000000000000D+00
   369  3.6800000000000D+00  0.0000000000000D+00  0.0000000000000D+00
   370  3.6900000000000D+00  0.0000000000000D+00  0.0000000000000D+00
   371  3.7000000000000D+00  0.0000000000000D+00  0.0000000000000D+00
   372  3.7100000000000D+00  0.0000000000000D+00  0.0000000000000D+00
   373  3.7200000000000D+00  0.0000000000000D+00  0.0000000000000D+00
   374  3.7300000000000D+00  0.0000000000000D+00  0.0000000000000D+00
   375  3.7400000000000D+00  0.0000000000000D+00  0.0000000000000D+00
   376  3.7500000000000D+00  0.0000000000000D+00  0.0000000000000D+00
   377  3.7600000000000D+00  0.0000000000000D+00  0.0000000000000D+00
   378  3.7700000000000D+00  0.0000000000000D+00  0.0000000000000D+00
   379  3.7800000000000D+00  0.0000000000000D+00  0.0000000000000D+00
   380  3.7900000000000D+00  0.0000000000000D+00  0.0000000000000D+00
   381  3.8000000000000D+00  0.0000000000000D+00  0.0000000000000D+00
   382  3.8100000000000D+00  0.0000000000000D+00  0.0000000000000D+00
   383  3.8200000000000D+00  0.0000000000000D+00  0.0000000000000D+00
   384  3.8300000000000D+00  0.0000000000000D+00  0.0000000000000D+00
   385  3.8400000000000D+00  0.0000000000000D+00  0.0000000000000D+00
   386  3.8500000000000D+00  0.0000000000000D+00  0.0000000000000D+00
   387  3.8600000000000D+00  0.0000000000000D+00  0.0000000000000D+00
   388  3.8700000000000D+00  0.0000000000000D+00  0.0000000000000D+00
   389  3.8800000000000D+00  0.0000000000000D+00  0.0000000000000D+00
   390  3.8900000000000D+00  0.0000000000000D+00  0.0000000000000D+00
   391  3.9000000000000D+00  0.0000000000000D+00  0.0000000000000D+00
   392  3.9100000000000D+00  0.0000000000000D+00  0.0000000000000D+00
   393  3.9200000000000D+00  0.0000000000000D+00  0.0000000000000D+00
   394  3.9300000000000D+00  0.0000000000000D+00  0.0000000000000D+00
   395  3.9400000000000D+00  0.0000000000000D+00  0.0000000000000D+00
   396  3.9500000000000D+00  0.0000000000000D+00  0.0000000000000D+00
   397  3.9600000000000D+00  0.0000000000000D+00  0.0000000000000D+00
   398  3.9700000000000D+00  0.0000000000000D+00  0.0000000000000D+00
   399  3.9800000000000D+00  0.0000000000000D+00  0.0000000000000D+00
   400  3.9900000000000D+00  0.0000000000000D+00  0.0000000000000D+00
   401  4.0000000000000D+00  0.0000000000000D+00  0.0000000000000D+00
   402  4.0100000000000D+00  0.0000000000000D+00  0.0000000000000D+00
   403  4.0200000000000D+00  0.0000000000000D+00  0.0000000000000D+00
   404  4.0300000000000D+00  0.0000000000000D+00  0.0000000000000D+00
   405  4.0400000000000D+00  0.0000000000000D+00  0.0000000000000D+00
   406  4.0500000000000D+00  0.0000000000000D+00  0.0000000000000D+00
   407  4.0600000000000D+00  0.0000000000000D+00  0.0000000000000D+00
   408  4.0700000000000D+00  0.0000000000000D+00  0.0000000000000D+00
   409  4.0800000000000D+00  0.0000000000000D+00  0.0000000000000D+00
   410  4.0900000000000D+00  0.0000000000000D+00  0.0000000000000D+00
   411  4.1000000000000D+00  0.0000000000000D+00  0.0000000000000D+00
   412  4.1100000000000D+00  0.0000000000000D+00  0.0000000000000D+00
   413  4.1200000000000D+00  0.0000000000000D+00  0.0000000000000D+00
   414  4.1300000000000D+00  0.0000000000000D+00  0.0000000000000D+00
   415  4.1400000000000D+00  0.0000000000000D+00  0.0000000000000D+00
   416  4.1500000000000D+00  0.0000000000000D+00  0.0000000000000D+00
   417  4.1600000000000D+00  0.0000000000000D+00  0.0000000000000D+00
   418  4.1700000000000D+00  0.0000000000000D+00  0.0000000000000D+00
   419  4.1800000000000D+00  0.0000000000000D+00  0.0000000000000D+00
   420  4.1900000000000D+00  0.0000000000000D+00  0.0000000000000D+00
   421  4.2000000000000D+00  0.0000000000000D+00  0.0000000000000D+00
   422  4.2100000000000D+00  0.0000000000000D+00  0.0000000000000D+00