Be    ONCVPSP-3.3.1  r_core=   2.37691   1.91763
      4.0000      4.0000      210904    zatom,zion,pspd
     8      11   1     4   600     0    pspcod,pspxc,lmax,lloc,mmax,r2well
  5.99000000  0.00000000  0.00000000    rchrg fchrg qchrg
     2     2     0     0     0    nproj
     1     1           extension_switch
   0                        -8.8131429538411D+00 -2.3619397635411D+00
     1  0.0000000000000D+00 -8.1320283840114D-11  2.0496299102390D-10
     2  1.0000000000000D-02  7.6135627330749D-02 -4.7668274545714D-02
     3  2.0000000000000D-02  1.5208014430647D-01 -9.5081393689409D-02
     4  3.0000000000000D-02  2.2764318083312D-01 -1.4198555316811D-01
     5  4.0000000000000D-02  3.0263584368413D-01 -1.8812964290546D-01
     6  5.0000000000000D-02  3.7687144581840D-01 -2.3326657392836D-01
     7  6.0000000000000D-02  4.5016622481724D-01 -2.7715458121730D-01
     8  7.0000000000000D-02  5.2234004690886D-01 -3.1955849470973D-01
     9  8.0000000000000D-02  5.9321709313039D-01 -3.6025097088098D-01
    10  9.0000000000000D-02  6.6262652427830D-01 -3.9901367758066D-01
    11  1.0000000000000D-01  7.3040312141727D-01 -4.3563842510308D-01
    12  1.1000000000000D-01  7.9638789885531D-01 -4.6992823681554D-01
    13  1.2000000000000D-01  8.6042868664747D-01 -5.0169835305622D-01
    14  1.3000000000000D-01  9.2238067986152D-01 -5.3077716244132D-01
    15  1.4000000000000D-01  9.8210695202505D-01 -5.5700705518579D-01
    16  1.5000000000000D-01  1.0394789303737D+00 -5.8024519354084D-01
    17  1.6000000000000D-01  1.0943768307332D+00 -6.0036419498063D-01
    18  1.7000000000000D-01  1.1466900500925D+00 -6.1725272432689D-01
    19  1.8000000000000D-01  1.1963175151605D+00 -6.3081599157954D-01
    20  1.9000000000000D-01  1.2431679854404D+00 -6.4097615282032D-01
    21  2.0000000000000D-01  1.2871603096109D+00 -6.4767261217078D-01
    22  2.1000000000000D-01  1.3282236342537D+00 -6.5086222341107D-01
    23  2.2000000000000D-01  1.3662975642339D+00 -6.5051939049890D-01
    24  2.3000000000000D-01  1.4013322742984D+00 -6.4663606686329D-01
    25  2.4000000000000D-01  1.4332885717257D+00 -6.3922165398185D-01
    26  2.5000000000000D-01  1.4621379101210D+00 -6.2830280037898D-01
    27  2.6000000000000D-01  1.4878623547157D+00 -6.1392310280160D-01
    28  2.7000000000000D-01  1.5104544997870D+00 -5.9614271193388D-01
    29  2.8000000000000D-01  1.5299173390666D+00 -5.7503784560090D-01
    30  2.9000000000000D-01  1.5462640902550D+00 -5.5070021297672D-01
    31  3.0000000000000D-01  1.5595179749965D+00 -5.2323635385432D-01
    32  3.1000000000000D-01  1.5697119558979D+00 -4.9276689754727D-01
    33  3.2000000000000D-01  1.5768884323959D+00 -4.5942574647405D-01
    34  3.3000000000000D-01  1.5810988974802D+00 -4.2335918992259D-01
    35  3.4000000000000D-01  1.5824035574777D+00 -3.8472495390094D-01
    36  3.5000000000000D-01  1.5808709172798D+00 -3.4369119334920D-01
    37  3.6000000000000D-01  1.5765773335603D+00 -3.0043543331428D-01
    38  3.7000000000000D-01  1.5696065386810D+00 -2.5514346597170D-01
    39  3.8000000000000D-01  1.5600491381110D+00 -2.0800821061556D-01
    40  3.9000000000000D-01  1.5480020843055D+00 -1.5922854392781D-01
    41  4.0000000000000D-01  1.5335681300801D+00 -1.0900810798008D-01
    42  4.1000000000000D-01  1.5168552646014D+00 -5.7554103515222D-02
    43  4.2000000000000D-01  1.4979761351702D+00 -5.0760761005093D-03
    44  4.3000000000000D-01  1.4770474580162D+00  4.8215297258797D-02
    45  4.4000000000000D-01  1.4541894213465D+00  1.0210941350876D-01
    46  4.5000000000000D-01  1.4295250838912D+00  1.5639693350118D-01
    47  4.6000000000000D-01  1.4031797721778D+00  2.1087094922100D-01
    48  4.7000000000000D-01  1.3752804797286D+00  2.6532812118483D-01
    49  4.8000000000000D-01  1.3459552713277D+00  3.1956977914258D-01
    50  4.9000000000000D-01  1.3153326954339D+00  3.7340297948930D-01
    51  5.0000000000000D-01  1.2835412077302D+00  4.2664151310818D-01
    52  5.1000000000000D-01  1.2507086087001D+00  4.7910685771632D-01
    53  5.2000000000000D-01  1.2169614980032D+00  5.3062906916947D-01
    54  5.3000000000000D-01  1.1824247482924D+00  5.8104760659694D-01
    55  5.4000000000000D-01  1.1472210009702D+00  6.3021208668080D-01
    56  5.5000000000000D-01  1.1114701862253D+00  6.7798296286112D-01
    57  5.6000000000000D-01  1.0752890695223D+00  7.2423212573673D-01
    58  5.7000000000000D-01  1.0387908265393D+00  7.6884342143702D-01
    59  5.8000000000000D-01  1.0020846483635D+00  8.1171308525938D-01
    60  5.9000000000000D-01  9.6527537855781D-01  8.5275008839593D-01
    61  6.0000000000000D-01  9.2846318351341D-01  8.9187639610913D-01
    62  6.1000000000000D-01  8.9174325729782D-01  9.2902713625320D-01
    63  6.2000000000000D-01  8.5520556199851D-01  9.6415067757488D-01
    64  6.3000000000000D-01  8.1893460435180D-01  9.9720861775966D-01
    65  6.4000000000000D-01  7.8300924923594D-01  1.0281756817103D+00
    66  6.5000000000000D-01  7.4750257039495D-01  1.0570395310574D+00
    67  6.6000000000000D-01  7.1248173855128D-01  1.0838004863967D+00
    68  6.7000000000000D-01  6.7800794685975D-01  1.1084711642214D+00
    69  6.8000000000000D-01  6.4413637345256D-01  1.1310760309763D+00
    70  6.9000000000000D-01  6.1091618062967D-01  1.1516508770873D+00
    71  7.0000000000000D-01  5.7839055005946D-01  1.1702422142223D+00
    72  7.1000000000000D-01  5.4659675317296D-01  1.1869065994124D+00
    73  7.2000000000000D-01  5.1556625576217D-01  1.2017098900023D+00
    74  7.3000000000000D-01  4.8532485562991D-01  1.2147264337035D+00
    75  7.4000000000000D-01  4.5589285198673D-01  1.2260381982952D+00
    76  7.5000000000000D-01  4.2728524514908D-01  1.2357338457514D+00
    77  7.6000000000000D-01  3.9951196496477D-01  1.2439077557637D+00
    78  7.7000000000000D-01  3.7257812627484D-01  1.2506590037915D+00
    79  7.8000000000000D-01  3.4648430961913D-01  1.2560902988804D+00
    80  7.9000000000000D-01  3.2122686530283D-01  1.2603068865708D+00
    81  8.0000000000000D-01  2.9679823886673D-01  1.2634154222534D+00
    82  8.1000000000000D-01  2.7318731594227D-01  1.2655228203275D+00
    83  8.2000000000000D-01  2.5037978442613D-01  1.2667350844726D+00
    84  8.3000000000000D-01  2.2835851187625D-01  1.2671561242727D+00
    85  8.4000000000000D-01  2.0710393601308D-01  1.2668865633093D+00
    86  8.5000000000000D-01  1.8659446620532D-01  1.2660225436963D+00
    87  8.6000000000000D-01  1.6680689382900D-01  1.2646545318424D+00
    88  8.7000000000000D-01  1.4771680941146D-01  1.2628661300163D+00
    89  8.8000000000000D-01  1.2929902450738D-01  1.2607328980444D+00
    90  8.9000000000000D-01  1.1152799630220D-01  1.2583211892035D+00
    91  9.0000000000000D-01  9.4378252998026D-02  1.2556870040772D+00
    92  9.1000000000000D-01  7.7824818107928D-02  1.2528748658306D+00
    93  9.2000000000000D-01  6.1843631865925D-02  1.2499167200266D+00
    94  9.3000000000000D-01  4.6411968050452D-02  1.2468308617568D+00
    95  9.4000000000000D-01  3.1508844618630D-02  1.2436208925041D+00
    96  9.5000000000000D-01  1.7115426655686D-02  1.2402747087818D+00
    97  9.6000000000000D-01  3.2154202577350D-03  1.2367635242207D+00
    98  9.7000000000000D-01 -1.0204543914438D-02  1.2330409264003D+00
    99  9.8000000000000D-01 -2.3154538546457D-02  1.2290419693337D+00
   100  9.9000000000000D-01 -3.5640980059041D-02  1.2246823021622D+00
   101  1.0000000000000D+00 -4.7666282574815D-02  1.2198573371310D+00
   102  1.0100000000000D+00 -5.9228527704223D-02  1.2144414717303D+00
   103  1.0200000000000D+00 -7.0321128969309D-02  1.2082871138290D+00
   104  1.0300000000000D+00 -8.0932573461014D-02  1.2012244769295D+00
   105  1.0400000000000D+00 -9.1046129021600D-02  1.1930608583042D+00
   106  1.0500000000000D+00 -1.0063843954338D-01  1.1835657026358D+00
   107  1.0600000000000D+00 -1.0967857539178D-01  1.1724657521839D+00
   108  1.0700000000000D+00 -1.1812889160899D-01  1.1594606405580D+00
   109  1.0800000000000D+00 -1.2594761916247D-01  1.1442524926113D+00
   110  1.0900000000000D+00 -1.3309246478885D-01  1.1265778224796D+00
   111  1.1000000000000D+00 -1.3952498114406D-01  1.1062399818731D+00
   112  1.1100000000000D+00 -1.4521502196395D-01  1.0831362911212D+00
   113  1.1200000000000D+00 -1.5014453887683D-01  1.0572751259857D+00
   114  1.1300000000000D+00 -1.5431008235992D-01  1.0287799848528D+00
   115  1.1400000000000D+00 -1.5772358426169D-01  9.9787976594201D-01
   116  1.1500000000000D+00 -1.6041132712167D-01  9.6488727350951D-01
   117  1.1600000000000D+00 -1.6241145531924D-01  9.3017049967241D-01
   118  1.1700000000000D+00 -1.6377052947108D-01  8.9412141448952D-01
   119  1.1800000000000D+00 -1.6453976025859D-01  8.5712718150823D-01
   120  1.1900000000000D+00 -1.6477153861314D-01  8.1954742478694D-01
   121  1.2000000000000D+00 -1.6451661944607D-01  7.8169889607252D-01
   122  1.2100000000000D+00 -1.6382215730191D-01  7.4384778083202D-01
   123  1.2200000000000D+00 -1.6273064370698D-01  7.0620863338457D-01
   124  1.2300000000000D+00 -1.6127955213077D-01  6.6894785543584D-01
   125  1.2400000000000D+00 -1.5950154809776D-01  6.3219020502086D-01
   126  1.2500000000000D+00 -1.5742504086775D-01  5.9602648307359D-01
   127  1.2600000000000D+00 -1.5507489790644D-01  5.6052127743857D-01
   128  1.2700000000000D+00 -1.5247320602305D-01  5.2572006002486D-01
   129  1.2800000000000D+00 -1.4963996838287D-01  4.9165507423298D-01
   130  1.2900000000000D+00 -1.4659370268188D-01  4.5835001269177D-01
   131  1.3000000000000D+00 -1.4335192132097D-01  4.2582350377727D-01
   132  1.3100000000000D+00 -1.3993148476780D-01  3.9409152494464D-01
   133  1.3200000000000D+00 -1.3634885070275D-01  3.6316899058947D-01
   134  1.3300000000000D+00 -1.3262023055623D-01  3.3307066086136D-01
   135  1.3400000000000D+00 -1.2876167491013D-01  3.0381158601647D-01
   136  1.3500000000000D+00 -1.2478910561489D-01  2.7540721083376D-01
   137  1.3600000000000D+00 -1.2071830810044D-01  2.4787325310402D-01
   138  1.3700000000000D+00 -1.1656490023011D-01  2.2122546998502D-01
   139  1.3800000000000D+00 -1.1234428332214D-01  1.9547934118742D-01
   140  1.3900000000000D+00 -1.0807158571197D-01  1.7064973891193D-01
   141  1.4000000000000D+00 -1.0376160323020D-01  1.4675060351070D-01
   142  1.4100000000000D+00 -9.9428739266753D-02  1.2379463835302D-01
   143  1.4200000000000D+00 -9.5086948972323D-02  1.0179304610363D-01
   144  1.4300000000000D+00 -9.0749686965168D-02  8.0755298258261D-02
   145  1.4400000000000D+00 -8.6429860817372D-02  6.0688947593349D-02
   146  1.4500000000000D+00 -8.2139790183562D-02  4.1599478621175D-02
   147  1.4600000000000D+00 -7.7891171611741D-02  2.3490194412169D-02
   148  1.4700000000000D+00 -7.3695049294417D-02  6.3621372409569D-03
   149  1.4800000000000D+00 -6.9561791164280D-02 -9.7859608334164D-03
   150  1.4900000000000D+00 -6.5501070346853D-02 -2.4957700301337D-02
   151  1.5000000000000D+00 -6.1521851501409D-02 -3.9159012716493D-02
   152  1.5100000000000D+00 -5.7632381825023D-02 -5.2398137938090D-02
   153  1.5200000000000D+00 -5.3840186348988D-02 -6.4685583218760D-02
   154  1.5300000000000D+00 -5.0152067287377D-02 -7.6034065569904D-02
   155  1.5400000000000D+00 -4.6574107079145D-02 -8.6458440598686D-02
   156  1.5500000000000D+00 -4.3111674926486D-02 -9.5975618452261D-02
   157  1.5600000000000D+00 -3.9769436493929D-02 -1.0460446964867D-01
   158  1.5700000000000D+00 -3.6551366580428D-02 -1.1236572137746D-01
   159  1.5800000000000D+00 -3.3460764477672D-02 -1.1928184629622D-01
   160  1.5900000000000D+00 -3.0500271814001D-02 -1.2537694462435D-01
   161  1.6000000000000D+00 -2.7671892642993D-02 -1.3067662091900D-01
   162  1.6100000000000D+00 -2.4977015564436D-02 -1.3520785649414D-01
   163  1.6200000000000D+00 -2.2416437671108D-02 -1.3899887843064D-01
   164  1.6300000000000D+00 -1.9990390100911D-02 -1.4207902621725D-01
   165  1.6400000000000D+00 -1.7698565015511D-02 -1.4447861667473D-01
   166  1.6500000000000D+00 -1.5540143779169D-02 -1.4622880822662D-01
   167  1.6600000000000D+00 -1.3513826185028D-02 -1.4736146495631D-01
   168  1.6700000000000D+00 -1.1617860496640D-02 -1.4790902151081D-01
   169  1.6800000000000D+00 -9.8500741793829D-03 -1.4790434912312D-01
   170  1.6900000000000D+00 -8.2079050842694D-03 -1.4738062379209D-01
   171  1.7000000000000D+00 -6.6884329869905D-03 -1.4637119675441D-01
   172  1.7100000000000D+00 -5.2884112418817D-03 -1.4490946824768D-01
   173  1.7200000000000D+00 -4.0042984806139D-03 -1.4302876458985D-01
   174  1.7300000000000D+00 -2.8322901173299D-03 -1.4076221951124D-01
   175  1.7400000000000D+00 -1.7683496125472D-03 -1.3814265968806D-01
   176  1.7500000000000D+00 -8.0823926849522D-04 -1.3520249531550D-01
   177  1.7600000000000D+00  5.2449478079348D-05 -1.3197361563730D-01
   178  1.7700000000000D+00  8.1826646986055D-04 -1.2848729012788D-01
   179  1.7800000000000D+00  1.4938739828551D-03 -1.2477407526639D-01
   180  1.7900000000000D+00  2.0840187846523D-03 -1.2086372739982D-01
   181  1.8000000000000D+00  2.5935051468200D-03 -1.1678512172124D-01
   182  1.8100000000000D+00  3.0271689167720D-03 -1.1256617760173D-01
   183  1.8200000000000D+00  3.3898527356073D-03 -1.0823379045594D-01
   184  1.8300000000000D+00  3.6863824268141D-03 -1.0381377005993D-01
   185  1.8400000000000D+00  3.9215447002034D-03 -9.9330785718072D-02
   186  1.8500000000000D+00  4.1000660960678D-03 -9.4808317831481D-02
   187  1.8600000000000D+00  4.2265933873856D-03 -9.0268616515695D-02
   188  1.8700000000000D+00  4.3056752607688D-03 -8.5732666467617D-02
   189  1.8800000000000D+00  4.3417455469483D-03 -8.1220158886118D-02
   190  1.8900000000000D+00  4.3391077844054D-03 -7.6749469549236D-02
   191  1.9000000000000D+00  4.3019213298930D-03 -7.2337643622143D-02
   192  1.9100000000000D+00  4.2341888796714D-03 -6.8000386600770D-02
   193  1.9200000000000D+00  4.1397454750708D-03 -6.3752061477681D-02
   194  1.9300000000000D+00  4.0222489842231D-03 -5.9605691962087D-02
   195  1.9400000000000D+00  3.8851719700527D-03 -5.5572971323662D-02
   196  1.9500000000000D+00  3.7317950707839D-03 -5.1664277092698D-02
   197  1.9600000000000D+00  3.5652016645698D-03 -4.7888690796427D-02
   198  1.9700000000000D+00  3.3882740099124D-03 -4.4254023120788D-02
   199  1.9800000000000D+00  3.2036906245063D-03 -4.0766843688210D-02
   200  1.9900000000000D+00  3.0139249932093D-03 -3.7432515528844D-02
   201  2.0000000000000D+00  2.8212455095776D-03 -3.4255233838950D-02
   202  2.0100000000000D+00  2.6277165622526D-03 -3.1238068636800D-02
   203  2.0200000000000D+00  2.4352008156235D-03 -2.8383011248356D-02
   204  2.0300000000000D+00  2.2453624798727D-03 -2.5691024003998D-02
   205  2.0400000000000D+00  2.0596716532369D-03 -2.3162093097430D-02
   206  2.0500000000000D+00  1.8794095621450D-03 -2.0795284101802D-02
   207  2.0600000000000D+00  1.7056746771657D-03 -1.8588799873387D-02
   208  2.0700000000000D+00  1.5393896487179D-03 -1.6540040517767D-02
   209  2.0800000000000D+00  1.3813089330082D-03 -1.4645665079442D-02
   210  2.0900000000000D+00  1.2320271038689D-03 -1.2901654559470D-02
   211  2.1000000000000D+00  1.0919877214195D-03 -1.1303376047731D-02
   212  2.1100000000000D+00  9.6149270516111D-04 -9.8456475214285D-03
   213  2.1200000000000D+00  8.4071213044825D-04 -8.5228029859716D-03
   214  2.1300000000000D+00  7.2969438476124D-04 -7.3287578533677D-03
   215  2.1400000000000D+00  6.2837656913145D-04 -6.2570737957048D-03
   216  2.1500000000000D+00  5.3659512689809D-04 -5.3010232877797D-03
   217  2.1600000000000D+00  4.5409657962401D-04 -4.4536531800819D-03
   218  2.1700000000000D+00  3.8054829069370D-04 -3.7078469863586D-03
   219  2.1800000000000D+00  3.1554927648677D-04 -3.0563861228065D-03
   220  2.1900000000000D+00  2.5864083294893D-04 -2.4920089437081D-03
   221  2.2000000000000D+00  2.0931707291339D-04 -2.0074681670825D-03
   222  2.2100000000000D+00  1.6703524137051D-04 -1.5955860922377D-03
   223  2.2200000000000D+00  1.3122567077689D-04 -1.2493070212188D-03
   224  2.2300000000000D+00  1.0130151882979D-04 -9.6174759730516D-04
   225  2.2400000000000D+00  7.6667999871124D-05 -7.2624380319692D-04
   226  2.2500000000000D+00  5.6731182058218D-05 -5.3639498779286D-04
   227  2.2600000000000D+00  4.0906407560420D-05 -3.8610519612453D-04
   228  2.2700000000000D+00  2.8625970984010D-05 -2.6962029120966D-04
   229  2.2800000000000D+00  1.9346376608700D-05 -1.8156224862599D-04
   230  2.2900000000000D+00  1.2554954675409D-05 -1.1695973645078D-04
   231  2.3000000000000D+00  7.7766634826274D-06 -7.1276287124618D-05
   232  2.3100000000000D+00  4.5761232700957D-06 -4.0427375953137D-05
   233  2.3200000000000D+00  2.5646217412577D-06 -2.0804010703863D-05
   234  2.3300000000000D+00  1.4017428286140D-06 -9.3104270804404D-06
   235  2.3400000000000D+00  8.1438017966404D-07 -3.3006561886137D-06
   236  2.3500000000000D+00  5.8171185379973D-07 -6.5591889368104D-07
   237  2.3600000000000D+00  5.3767374474411D-07  2.3666245690184D-07
   238  2.3700000000000D+00  5.2890805128756D-07  3.1976634113476D-07
   239  2.3800000000000D+00  4.5494381105870D-07  1.6047928121257D-07
   240  2.3900000000000D+00  2.8250992938818D-07  1.7880772468995D-08
   241  2.4000000000000D+00  8.9134046425928D-08 -1.5982797244787D-08
   242  2.4100000000000D+00 -3.4399118077153D-08 -9.3025584987968D-10
   243  2.4200000000000D+00 -5.3802679679197D-08  4.0845096558812D-09
   244  2.4300000000000D+00 -2.0392572347901D-08  3.3557400422264D-09
   245  2.4400000000000D+00  7.6485771083114D-09  5.4407406296537D-09
   246  2.4500000000000D+00  1.1203790919763D-08  8.1219087855894D-09
   247  2.4600000000000D+00  3.8193717366548D-09  2.8118043439823D-09
   248  2.4700000000000D+00 -9.7684397426005D-10 -4.3281075306785D-10
   249  2.4800000000000D+00 -1.3543500286228D-09 -6.0007255124824D-10
   250  2.4900000000000D+00 -4.2364173958948D-10 -1.8770315953639D-10
   251  2.5000000000000D+00  0.0000000000000D+00  0.0000000000000D+00
   252  2.5100000000000D+00  0.0000000000000D+00  0.0000000000000D+00
   253  2.5200000000000D+00  0.0000000000000D+00  0.0000000000000D+00
   254  2.5300000000000D+00  0.0000000000000D+00  0.0000000000000D+00
   255  2.5400000000000D+00  0.0000000000000D+00  0.0000000000000D+00
   256  2.5500000000000D+00  0.0000000000000D+00  0.0000000000000D+00
   257  2.5600000000000D+00  0.0000000000000D+00  0.0000000000000D+00
   258  2.5700000000000D+00  0.0000000000000D+00  0.0000000000000D+00
   259  2.5800000000000D+00  0.0000000000000D+00  0.0000000000000D+00
   260  2.5900000000000D+00  0.0000000000000D+00  0.0000000000000D+00
   261  2.6000000000000D+00  0.0000000000000D+00  0.0000000000000D+00
   262  2.6100000000000D+00  0.0000000000000D+00  0.0000000000000D+00
   263  2.6200000000000D+00  0.0000000000000D+00  0.0000000000000D+00
   264  2.6300000000000D+00  0.0000000000000D+00  0.0000000000000D+00
   265  2.6400000000000D+00  0.0000000000000D+00  0.0000000000000D+00
   266  2.6500000000000D+00  0.0000000000000D+00  0.0000000000000D+00
   267  2.6600000000000D+00  0.0000000000000D+00  0.0000000000000D+00
   268  2.6700000000000D+00  0.0000000000000D+00  0.0000000000000D+00
   269  2.6800000000000D+00  0.0000000000000D+00  0.0000000000000D+00
   270  2.6900000000000D+00  0.0000000000000D+00  0.0000000000000D+00
   271  2.7000000000000D+00  0.0000000000000D+00  0.0000000000000D+00
   272  2.7100000000000D+00  0.0000000000000D+00  0.0000000000000D+00
   273  2.7200000000000D+00  0.0000000000000D+00  0.0000000000000D+00
   274  2.7300000000000D+00  0.0000000000000D+00  0.0000000000000D+00
   275  2.7400000000000D+00  0.0000000000000D+00  0.0000000000000D+00
   276  2.7500000000000D+00  0.0000000000000D+00  0.0000000000000D+00
   277  2.7600000000000D+00  0.0000000000000D+00  0.0000000000000D+00
   278  2.7700000000000D+00  0.0000000000000D+00  0.0000000000000D+00
   279  2.7800000000000D+00  0.0000000000000D+00  0.0000000000000D+00
   280  2.7900000000000D+00  0.0000000000000D+00  0.0000000000000D+00
   281  2.8000000000000D+00  0.0000000000000D+00  0.0000000000000D+00
   282  2.8100000000000D+00  0.0000000000000D+00  0.0000000000000D+00
   283  2.8200000000000D+00  0.0000000000000D+00  0.0000000000000D+00
   284  2.8300000000000D+00  0.0000000000000D+00  0.0000000000000D+00
   285  2.8400000000000D+00  0.0000000000000D+00  0.0000000000000D+00
   286  2.8500000000000D+00  0.0000000000000D+00  0.0000000000000D+00
   287  2.8600000000000D+00  0.0000000000000D+00  0.0000000000000D+00
   288  2.8700000000000D+00  0.0000000000000D+00  0.0000000000000D+00
   289  2.8800000000000D+00  0.0000000000000D+00  0.0000000000000D+00
   290  2.8900000000000D+00  0.0000000000000D+00  0.0000000000000D+00
   291  2.9000000000000D+00  0.0000000000000D+00  0.0000000000000D+00
   292  2.9100000000000D+00  0.0000000000000D+00  0.0000000000000D+00
   293  2.9200000000000D+00  0.0000000000000D+00  0.0000000000000D+00
   294  2.9300000000000D+00  0.0000000000000D+00  0.0000000000000D+00
   295  2.9400000000000D+00  0.0000000000000D+00  0.0000000000000D+00
   296  2.9500000000000D+00  0.0000000000000D+00  0.0000000000000D+00
   297  2.9600000000000D+00  0.0000000000000D+00  0.0000000000000D+00
   298  2.9700000000000D+00  0.0000000000000D+00  0.0000000000000D+00
   299  2.9800000000000D+00  0.0000000000000D+00  0.0000000000000D+00
   300  2.9900000000000D+00  0.0000000000000D+00  0.0000000000000D+00
   301  3.0000000000000D+00  0.0000000000000D+00  0.0000000000000D+00
   302  3.0100000000000D+00  0.0000000000000D+00  0.0000000000000D+00
   303  3.0200000000000D+00  0.0000000000000D+00  0.0000000000000D+00
   304  3.0300000000000D+00  0.0000000000000D+00  0.0000000000000D+00
   305  3.0400000000000D+00  0.0000000000000D+00  0.0000000000000D+00
   306  3.0500000000000D+00  0.0000000000000D+00  0.0000000000000D+00
   307  3.0600000000000D+00  0.0000000000000D+00  0.0000000000000D+00
   308  3.0700000000000D+00  0.0000000000000D+00  0.0000000000000D+00
   309  3.0800000000000D+00  0.0000000000000D+00  0.0000000000000D+00
   310  3.0900000000000D+00  0.0000000000000D+00  0.0000000000000D+00
   311  3.1000000000000D+00  0.0000000000000D+00  0.0000000000000D+00
   312  3.1100000000000D+00  0.0000000000000D+00  0.0000000000000D+00
   313  3.1200000000000D+00  0.0000000000000D+00  0.0000000000000D+00
   314  3.1300000000000D+00  0.0000000000000D+00  0.0000000000000D+00
   315  3.1400000000000D+00  0.0000000000000D+00  0.0000000000000D+00
   316  3.1500000000000D+00  0.0000000000000D+00  0.0000000000000D+00
   317  3.1600000000000D+00  0.0000000000000D+00  0.0000000000000D+00
   318  3.1700000000000D+00  0.0000000000000D+00  0.0000000000000D+00
   319  3.1800000000000D+00  0.0000000000000D+00  0.0000000000000D+00
   320  3.1900000000000D+00  0.0000000000000D+00  0.0000000000000D+00
   321  3.2000000000000D+00  0.0000000000000D+00  0.0000000000000D+00
   322  3.2100000000000D+00  0.0000000000000D+00  0.0000000000000D+00
   323  3.2200000000000D+00  0.0000000000000D+00  0.0000000000000D+00
   324  3.2300000000000D+00  0.0000000000000D+00  0.0000000000000D+00
   325  3.2400000000000D+00  0.0000000000000D+00  0.0000000000000D+00
   326  3.2500000000000D+00  0.0000000000000D+00  0.0000000000000D+00
   327  3.2600000000000D+00  0.0000000000000D+00  0.0000000000000D+00
   328  3.2700000000000D+00  0.0000000000000D+00  0.0000000000000D+00
   329  3.2800000000000D+00  0.0000000000000D+00  0.0000000000000D+00
   330  3.2900000000000D+00  0.0000000000000D+00  0.0000000000000D+00
   331  3.3000000000000D+00  0.0000000000000D+00  0.0000000000000D+00
   332  3.3100000000000D+00  0.0000000000000D+00  0.0000000000000D+00
   333  3.3200000000000D+00  0.0000000000000D+00  0.0000000000000D+00
   334  3.3300000000000D+00  0.0000000000000D+00  0.0000000000000D+00
   335  3.3400000000000D+00  0.0000000000000D+00  0.0000000000000D+00
   336  3.3500000000000D+00  0.0000000000000D+00  0.0000000000000D+00
   337  3.3600000000000D+00  0.0000000000000D+00  0.0000000000000D+00
   338  3.3700000000000D+00  0.0000000000000D+00  0.0000000000000D+00
   339  3.3800000000000D+00  0.0000000000000D+00  0.0000000000000D+00
   340  3.3900000000000D+00  0.0000000000000D+00  0.0000000000000D+00
   341  3.4000000000000D+00  0.0000000000000D+00  0.0000000000000D+00
   342  3.4100000000000D+00  0.0000000000000D+00  0.0000000000000D+00
   343  3.4200000000000D+00  0.0000000000000D+00  0.0000000000000D+00
   344  3.4300000000000D+00  0.0000000000000D+00  0.0000000000000D+00
   345  3.4400000000000D+00  0.0000000000000D+00  0.0000000000000D+00
   346  3.4500000000000D+00  0.0000000000000D+00  0.0000000000000D+00
   347  3.4600000000000D+00  0.0000000000000D+00  0.0000000000000D+00
   348  3.4700000000000D+00  0.0000000000000D+00  0.0000000000000D+00
   349  3.4800000000000D+00  0.0000000000000D+00  0.0000000000000D+00
   350  3.4900000000000D+00  0.0000000000000D+00  0.0000000000000D+00
   351  3.5000000000000D+00  0.0000000000000D+00  0.0000000000000D+00
   352  3.5100000000000D+00  0.0000000000000D+00  0.0000000000000D+00
   353  3.5200000000000D+00  0.0000000000000D+00  0.0000000000000D+00
   354  3.5300000000000D+00  0.0000000000000D+00  0.0000000000000D+00
   355  3.5400000000000D+00  0.0000000000000D+00  0.0000000000000D+00
   356  3.5500000000000D+00  0.0000000000000D+00  0.0000000000000D+00
   357  3.5600000000000D+00  0.0000000000000D+00  0.0000000000000D+00
   358  3.5700000000000D+00  0.0000000000000D+00  0.0000000000000D+00
   359  3.5800000000000D+00  0.0000000000000D+00  0.0000000000000D+00
   360  3.5900000000000D+00  0.0000000000000D+00  0.0000000000000D+00
   361  3.6000000000000D+00  0.0000000000000D+00  0.0000000000000D+00
   362  3.6100000000000D+00  0.0000000000000D+00  0.0000000000000D+00
   363  3.6200000000000D+00  0.0000000000000D+00  0.0000000000000D+00
   364  3.6300000000000D+00  0.0000000000000D+00  0.0000000000000D+00
   365  3.6400000000000D+00  0.0000000000000D+00  0.0000000000000D+00
   366  3.6500000000000D+00  0.0000000000000D+00  0.0000000000000D+00
   367  3.6600000000000D+00  0.0000000000000D+00  0.0000000000000D+00
   368  3.6700000000000D+00  0.0000000000000D+00  0.0000000000000D+00
   369  3.6800000000000D+00  0.0000000000000D+00  0.0000000000000D+00
   370  3.6900000000000D+00  0.0000000000000D+00  0.0000000000000D+00
   371  3.7000000000000D+00  0.0000000000000D+00  0.0000000000000D+00
   372  3.7100000000000D+00  0.0000000000000D+00  0.0000000000000D+00
   373  3.7200000000000D+00  0.0000000000000D+00  0.0000000000000D+00
   374  3.7300000000000D+00  0.0000000000000D+00  0.0000000000000D+00
   375  3.7400000000000D+00  0.0000000000000D+00  0.0000000000000D+00
   376  3.7500000000000D+00  0.0000000000000D+00  0.0000000000000D+00
   377  3.7600000000000D+00  0.0000000000000D+00  0.0000000000000D+00
   378  3.7700000000000D+00  0.0000000000000D+00  0.0000000000000D+00
   379  3.7800000000000D+00  0.0000000000000D+00  0.0000000000000D+00
   380  3.7900000000000D+00  0.0000000000000D+00  0.0000000000000D+00
   381  3.8000000000000D+00  0.0000000000000D+00  0.0000000000000D+00
   382  3.8100000000000D+00  0.0000000000000D+00  0.0000000000000D+00
   383  3.8200000000000D+00  0.0000000000000D+00  0.0000000000000D+00
   384  3.8300000000000D+00  0.0000000000000D+00  0.0000000000000D+00
   385  3.8400000000000D+00  0.0000000000000D+00  0.0000000000000D+00
   386  3.8500000000000D+00  0.0000000000000D+00  0.0000000000000D+00
   387  3.8600000000000D+00  0.0000000000000D+00  0.0000000000000D+00
   388  3.8700000000000D+00  0.0000000000000D+00  0.0000000000000D+00
   389  3.8800000000000D+00  0.0000000000000D+00  0.0000000000000D+00
   390  3.8900000000000D+00  0.0000000000000D+00  0.0000000000000D+00
   391  3.9000000000000D+00  0.0000000000000D+00  0.0000000000000D+00
   392  3.9100000000000D+00  0.0000000000000D+00  0.0000000000000D+00
   393  3.9200000000000D+00  0.0000000000000D+00  0.0000000000000D+00
   394  3.9300000000000D+00  0.0000000000000D+00  0.0000000000000D+00
   395  3.9400000000000D+00  0.0000000000000D+00  0.0000000000000D+00
   396  3.9500000000000D+00  0.0000000000000D+00  0.0000000000000D+00
   397  3.9600000000000D+00  0.0000000000000D+00  0.0000000000000D+00
   398  3.9700000000000D+00  0.0000000000000D+00  0.0000000000000D+00
   399  3.9800000000000D+00  0.0000000000000D+00  0.0000000000000D+00
   400  3.9900000000000D+00  0.0000000000000D+00  0.0000000000000D+00
   401  4.0000000000000D+00  0.0000000000000D+00  0.0000000000000D+00
   402  4.0100000000000D+00  0.0000000000000D+00  0.0000000000000D+00
   403  4.0200000000000D+00  0.0000000000000D+00  0.0000000000000D+00
   404  4.0300000000000D+00  0.0000000000000D+00  0.0000000000000D+00
   405  4.0400000000000D+00  0.0000000000000D+00  0.0000000000000D+00
   406  4.0500000000000D+00  0.0000000000000D+00  0.0000000000000D+00
   407  4.0600000000000D+00  0.0000000000000D+00  0.0000000000000D+00
   408  4.0700000000000D+00  0.0000000000000D+00  0.0000000000000D+00
   409  4.0800000000000D+00  0.0000000000000D+00  0.0000000000000D+00
   410  4.0900000000000D+00  0.0000000000000D+00  0.0000000000000D+00
   411  4.1000000000000D+00  0.0000000000000D+00  0.0000000000000D+00
   412  4.1100000000000D+00  0.0000000000000D+00  0.0000000000000D+00
   413  4.1200000000000D+00  0.0000000000000D+00  0.0000000000000D+00
   414  4.1300000000000D+00  0.0000000000000D+00  0.0000000000000D+00
   415  4.1400000000000D+00  0.0000000000000D+00  0.0000000000000D+00
   416  4.1500000000000D+00  0.0000000000000D+00  0.0000000000000D+00
   417  4.1600000000000D+00  0.0000000000000D+00  0.0000000000000D+00
   418  4.1700000000000D+00  0.0000000000000D+00  0.0000000000000D+00
   419  4.1800000000000D+00  0.0000000000000D+00  0.0000000000000D+00
   420  4.1900000000000D+00  0.0000000000000D+00  0.0000000000000D+00
   421  4.2000000000000D+00  0.0000000000000D+00  0.0000000000000D+00
   422  4.2100000000000D+00  0.0000000000000D+00  0.0000000000000D+00
   423  4.2200000000000D+00  0.0000000000000D+00  0.0000000000000D+00