Br    ONCVPSP-3.3.1  r_core=   2.49793   2.49793   2.49793
     35.0000      7.0000      210904    zatom,zion,pspd
     8      11   2     4   600     0    pspcod,pspxc,lmax,lloc,mmax,r2well
  5.99000000  0.00000000  0.00000000    rchrg fchrg qchrg
     2     4     3     0    nproj
     3     1           extension_switch
     4     4     0    nprojso
   0                        -3.8248686240698D+00  1.7377558776750D+00
     1  0.0000000000000D+00  2.2852442160826D-11 -1.4937440173668D-11
     2  1.0000000000000D-02  3.3201375378141D-02  2.2452218499806D-02
     3  2.0000000000000D-02  6.6391889481501D-02  4.4874199167264D-02
     4  3.0000000000000D-02  9.9560515515038D-02  6.7235849649398D-02
     5  4.0000000000000D-02  1.3269589676504D-01  8.9507367787115D-02
     6  5.0000000000000D-02  1.6578618443863D-01  1.1165938480374D-01
     7  6.0000000000000D-02  1.9881887884576D-01  1.3366310621401D-01
     8  7.0000000000000D-02  2.3178067501090D-01  1.5549044971126D-01
     9  8.0000000000000D-02  2.6465731377908D-01  1.7711417930537D-01
    10  9.0000000000000D-02  2.9743343945217D-01  1.9850803500266D-01
    11  1.0000000000000D-01  3.3009246495797D-01  2.1964685734084D-01
    12  1.1000000000000D-01  3.6261644551548D-01  2.4050670611783D-01
    13  1.2000000000000D-01  3.9498596171579D-01  2.6106497268151D-01
    14  1.3000000000000D-01  4.2718001288939D-01  2.8130048517996D-01
    15  1.4000000000000D-01  4.5917592157706D-01  3.0119360620614D-01
    16  1.5000000000000D-01  4.9094924986411D-01  3.2072632230894D-01
    17  1.6000000000000D-01  5.2247372827558D-01  3.3988232488277D-01
    18  1.7000000000000D-01  5.5372119786477D-01  3.5864708199100D-01
    19  1.8000000000000D-01  5.8466156605847D-01  3.7700790072325D-01
    20  1.9000000000000D-01  6.1526277674968D-01  3.9495397973404D-01
    21  2.0000000000000D-01  6.4549079505442D-01  4.1247645165919D-01
    22  2.1000000000000D-01  6.7530960707119D-01  4.2956841515706D-01
    23  2.2000000000000D-01  7.0468123490275D-01  4.4622495637336D-01
    24  2.3000000000000D-01  7.3356576711851D-01  4.6244315968180D-01
    25  2.4000000000000D-01  7.6192140475358D-01  4.7822210760630D-01
    26  2.5000000000000D-01  7.8970452285731D-01  4.9356286988539D-01
    27  2.6000000000000D-01  8.1686974752041D-01  5.0846848169392D-01
    28  2.7000000000000D-01  8.4337004822581D-01  5.2294391109243D-01
    29  2.8000000000000D-01  8.6915684528508D-01  5.3699601582903D-01
    30  2.9000000000000D-01  8.9418013203941D-01  5.5063348967310D-01
    31  3.0000000000000D-01  9.1838861142247D-01  5.6386679851357D-01
    32  3.1000000000000D-01  9.4172984640247D-01  5.7670810650720D-01
    33  3.2000000000000D-01  9.6415042374251D-01  5.8917119261349D-01
    34  3.3000000000000D-01  9.8559613044245D-01  6.0127135790308D-01
    35  3.4000000000000D-01  1.0060121421524D+00  6.1302532407419D-01
    36  3.5000000000000D-01  1.0253432227776D+00  6.2445112365826D-01
    37  3.6000000000000D-01  1.0435339344287D+00  6.3556798243968D-01
    38  3.7000000000000D-01  1.0605288568061D+00  6.4639619465630D-01
    39  3.8000000000000D-01  1.0762728150520D+00  6.5695699158626D-01
    40  3.9000000000000D-01  1.0907111150442D+00  6.6727240416299D-01
    41  4.0000000000000D-01  1.1037897850620D+00  6.7736512029322D-01
    42  4.1000000000000D-01  1.1154558227020D+00  6.8725833758326D-01
    43  4.2000000000000D-01  1.1256574458898D+00  6.9697561220497D-01
    44  4.3000000000000D-01  1.1343443467926D+00  7.0654070465667D-01
    45  4.4000000000000D-01  1.1414679474123D+00  7.1597742319349D-01
    46  4.5000000000000D-01  1.1469816556148D+00  7.2530946571792D-01
    47  4.6000000000000D-01  1.1508411203326D+00  7.3456026093339D-01
    48  4.7000000000000D-01  1.1530044846688D+00  7.4375280957209D-01
    49  4.8000000000000D-01  1.1534326356233D+00  7.5290952651282D-01
    50  4.9000000000000D-01  1.1520894491634D+00  7.6205208460494D-01
    51  5.0000000000000D-01  1.1489420293682D+00  7.7120126101129D-01
    52  5.1000000000000D-01  1.1439609403900D+00  7.8037678687534D-01
    53  5.2000000000000D-01  1.1371204299933D+00  7.8959720110661D-01
    54  5.3000000000000D-01  1.1283986434594D+00  7.9887970906306D-01
    55  5.4000000000000D-01  1.1177778266752D+00  8.0824004688996D-01
    56  5.5000000000000D-01  1.1052445172604D+00  8.1769235225217D-01
    57  5.6000000000000D-01  1.0907897226343D+00  8.2724904216968D-01
    58  5.7000000000000D-01  1.0744090839668D+00  8.3692069863673D-01
    59  5.8000000000000D-01  1.0561030250166D+00  8.4671596267063D-01
    60  5.9000000000000D-01  1.0358768849152D+00  8.5664143739995D-01
    61  6.0000000000000D-01  1.0137410340219D+00  8.6670160076159D-01
    62  6.1000000000000D-01  9.8971097204253D-01  8.7689872833301D-01
    63  6.2000000000000D-01  9.6380740767528D-01  8.8723282678070D-01
    64  6.3000000000000D-01  9.3605631912939D-01  8.9770157835687D-01
    65  6.4000000000000D-01  9.0648899493686D-01  9.0830029682645D-01
    66  6.5000000000000D-01  8.7514205456588D-01  9.1902189515298D-01
    67  6.6000000000000D-01  8.4205744842893D-01  9.2985686521786D-01
    68  6.7000000000000D-01  8.0728243696952D-01  9.4079326979071D-01
    69  6.8000000000000D-01  7.7086954860198D-01  9.5181674691122D-01
    70  6.9000000000000D-01  7.3287651637298D-01  9.6291052678387D-01
    71  7.0000000000000D-01  6.9336619330779D-01  9.7405546122734D-01
    72  7.1000000000000D-01  6.5240644649973D-01  9.8523006566056D-01
    73  7.2000000000000D-01  6.1007003009766D-01  9.9641057354642D-01
    74  7.3000000000000D-01  5.6643443744230D-01  1.0075710031544D+00
    75  7.4000000000000D-01  5.2158173269760D-01  1.0186832364427D+00
    76  7.5000000000000D-01  4.7559836241860D-01  1.0297171098015D+00
    77  7.6000000000000D-01  4.2857494759016D-01  1.0406405163400D+00
    78  7.7000000000000D-01  3.8060605676282D-01  1.0514195193426D+00
    79  7.8000000000000D-01  3.3178996100165D-01  1.0620184764638D+00
    80  7.9000000000000D-01  2.8222837145056D-01  1.0724001741769D+00
    81  8.0000000000000D-01  2.3202616039853D-01  1.0825259719391D+00
    82  8.1000000000000D-01  1.8129106681442D-01  1.0923559554865D+00
    83  8.2000000000000D-01  1.3013338739364D-01  1.1018490986228D+00
    84  8.3000000000000D-01  7.8665654232271D-02  1.1109634328244D+00
    85  8.4000000000000D-01  2.7002300311911D-02  1.1196562239387D+00
    86  8.5000000000000D-01 -2.4740685958592D-02  1.1278841552153D+00
    87  8.6000000000000D-01 -7.6446115840762D-02  1.1356035158770D+00
    88  8.7000000000000D-01 -1.2799596364768D-01  1.1427703944008D+00
    89  8.8000000000000D-01 -1.7927173700644D-01  1.1493408756544D+00
    90  8.9000000000000D-01 -2.3015485255946D-01  1.1552712410104D+00
    91  9.0000000000000D-01 -2.8052701562820D-01  1.1605181705359D+00
    92  9.1000000000000D-01 -3.3027060233513D-01  1.1650389463445D+00
    93  9.2000000000000D-01 -3.7926904265867D-01  1.1687916561811D+00
    94  9.3000000000000D-01 -4.2740720288198D-01  1.1717353963061D+00
    95  9.4000000000000D-01 -4.7457176588830D-01  1.1738304727400D+00
    96  9.5000000000000D-01 -5.2065160775563D-01  1.1750385999320D+00
    97  9.6000000000000D-01 -5.6553816910937D-01  1.1753230959208D+00
    98  9.7000000000000D-01 -6.0912581970541D-01  1.1746490730672D+00
    99  9.8000000000000D-01 -6.5131221473527D-01  1.1729836234500D+00
   100  9.9000000000000D-01 -6.9199864137316D-01  1.1702959980398D+00
   101  1.0000000000000D+00 -7.3109035411772D-01  1.1665577787828D+00
   102  1.0100000000000D+00 -7.6849689752182D-01  1.1617430427586D+00
   103  1.0200000000000D+00 -8.0413241495052D-01  1.1558285176043D+00
   104  1.0300000000000D+00 -8.3791594206123D-01  1.1487937274347D+00
   105  1.0400000000000D+00 -8.6977168375803D-01  1.1406211285244D+00
   106  1.0500000000000D+00 -8.9962927343689D-01  1.1312962340635D+00
   107  1.0600000000000D+00 -9.2742401341136D-01  1.1208077273415D+00
   108  1.0700000000000D+00 -9.5309709548120D-01  1.1091475627662D+00
   109  1.0800000000000D+00 -9.7659580068972D-01  1.0963110541751D+00
   110  1.0900000000000D+00 -9.9787367740014D-01  1.0822969499524D+00
   111  1.1000000000000D+00 -1.0168906969054D+00  1.0671074945191D+00
   112  1.1100000000000D+00 -1.0336133858898D+00  1.0507484758311D+00
   113  1.1200000000000D+00 -1.0480149351458D+00  1.0332292585730D+00
   114  1.1300000000000D+00 -1.0600752840662D+00  1.0145628028111D+00
   115  1.1400000000000D+00 -1.0697811805014D+00  9.9476566791339D-01
   116  1.1500000000000D+00 -1.0771262157149D+00  9.7385800163578D-01
   117  1.1600000000000D+00 -1.0821108342478D+00  9.5186351432209D-01
   118  1.1700000000000D+00 -1.0847423186305D+00  9.2880943824669D-01
   119  1.1800000000000D+00 -1.0850347489535D+00  9.0472647217423D-01
   120  1.1900000000000D+00 -1.0830089374574D+00  8.7964871130659D-01
   121  1.2000000000000D+00 -1.0786923383928D+00  8.5361356284000D-01
   122  1.2100000000000D+00 -1.0721189334904D+00  8.2666164741493D-01
   123  1.2200000000000D+00 -1.0633290935029D+00  7.9883668681476D-01
   124  1.2300000000000D+00 -1.0523694163930D+00  7.7018537833982D-01
   125  1.2400000000000D+00 -1.0392925428281D+00  7.4075725633666D-01
   126  1.2500000000000D+00 -1.0241569497170D+00  7.1060454140812D-01
   127  1.2600000000000D+00 -1.0070267226750D+00  6.7978197792283D-01
   128  1.2700000000000D+00 -9.8797130836171D-01  6.4834666047681D-01
   129  1.2800000000000D+00 -9.6706524768440D-01  6.1635784998999D-01
   130  1.2900000000000D+00 -9.4438789102610D-01  5.8387678022088D-01
   131  1.3000000000000D+00 -9.2002309668071D-01  5.5096645549430D-01
   132  1.3100000000000D+00 -8.9405891372038D-01  5.1769144046425D-01
   133  1.3200000000000D+00 -8.6658725067560D-01  4.8411764282411D-01
   134  1.3300000000000D+00 -8.3770353139059D-01  4.5031208986384D-01
   135  1.3400000000000D+00 -8.0750633948208D-01  4.1634269981417D-01
   136  1.3500000000000D+00 -7.7609705293142D-01  3.8227804897072D-01
   137  1.3600000000000D+00 -7.4357947030150D-01  3.4818713557038D-01
   138  1.3700000000000D+00 -7.1005943016151D-01  3.1413914144262D-01
   139  1.3800000000000D+00 -6.7564442531537D-01  2.8020319245602D-01
   140  1.3900000000000D+00 -6.4044321342243D-01  2.4644811878516D-01
   141  1.4000000000000D+00 -6.0456542565854D-01  2.1294221603889D-01
   142  1.4100000000000D+00 -5.6812117501685D-01  1.7975300826546D-01
   143  1.4200000000000D+00 -5.3122066590487D-01  1.4694701388311D-01
   144  1.4300000000000D+00 -4.9397380660552D-01  1.1458951550730D-01
   145  1.4400000000000D+00 -4.5648982625080D-01  8.2744334716196D-02
   146  1.4500000000000D+00 -4.1887689783874D-01  5.1473612690713D-02
   147  1.4600000000000D+00 -3.8124176882987D-01  2.0837597678939D-02
   148  1.4700000000000D+00 -3.4368940089372D-01 -9.1055597483779D-03
   149  1.4800000000000D+00 -3.0632262010159D-01 -3.8300002884096D-02
   150  1.4900000000000D+00 -2.6924177919872D-01 -6.6692355500704D-02
   151  1.5000000000000D+00 -2.3254443303479D-01 -9.4231898287578D-02
   152  1.5100000000000D+00 -1.9632502866116D-01 -1.2087073418896D-01
   153  1.5200000000000D+00 -1.6067461115008D-01 -1.4656394204994D-01
   154  1.5300000000000D+00 -1.2568054629710D-01 -1.7126971789690D-01
   155  1.5400000000000D+00 -9.1426261366533D-02 -1.9494950318614D-01
   156  1.5500000000000D+00 -5.7991004566163D-02 -2.1756809967746D-01
   157  1.5600000000000D+00 -2.5449624574019D-02 -2.3909377015548D-01
   158  1.5700000000000D+00  6.1276297351189D-03 -2.5949832502336D-01
   159  1.5800000000000D+00  3.6675287912690D-02 -2.7875719390728D-01
   160  1.5900000000000D+00  6.6132815166575D-02 -2.9684948256913D-01
   161  1.6000000000000D+00  9.4444746907128D-02 -3.1375801437699D-01
   162  1.6100000000000D+00  1.2156080098318D-01 -3.2946935670570D-01
   163  1.6200000000000D+00  1.4743596669177D-01 -3.4397383177239D-01
   164  1.6300000000000D+00  1.7203057095878D-01 -3.5726551229152D-01
   165  1.6400000000000D+00  1.9531032118740D-01 -3.6934220173147D-01
   166  1.6500000000000D+00  2.1724632519289D-01 -3.8020539956941D-01
   167  1.6600000000000D+00  2.3781508811766D-01 -3.8986025158959D-01
   168  1.6700000000000D+00  2.5699848679487D-01 -3.9831548565316D-01
   169  1.6800000000000D+00  2.7478372180263D-01 -4.0558333321281D-01
   170  1.6900000000000D+00  2.9116324777634D-01 -4.1167943706418D-01
   171  1.7000000000000D+00  3.0613468249460D-01 -4.1662274578412D-01
   172  1.7100000000000D+00  3.1970069546905D-01 -4.2043539545221D-01
   173  1.7200000000000D+00  3.3186887673465D-01 -4.2314257922120D-01
   174  1.7300000000000D+00  3.4265158680152D-01 -4.2477240547890D-01
   175  1.7400000000000D+00  3.5206578854862D-01 -4.2535574522022D-01
   176  1.7500000000000D+00  3.6013286230931D-01 -4.2492606955070D-01
   177  1.7600000000000D+00  3.6687840492708D-01 -4.2351927794170D-01
   178  1.7700000000000D+00  3.7233201435048D-01 -4.2117351834824D-01
   179  1.7800000000000D+00  3.7652706049168D-01 -4.1792899978510D-01
   180  1.7900000000000D+00  3.7950044421430D-01 -4.1382779863484D-01
   181  1.8000000000000D+00  3.8129234512991D-01 -4.0891365927631D-01
   182  1.8100000000000D+00  3.8194596026360D-01 -4.0323179038793D-01
   183  1.8200000000000D+00  3.8150723432148D-01 -3.9682865758551D-01
   184  1.8300000000000D+00  3.8002458360809D-01 -3.8975177367962D-01
   185  1.8400000000000D+00  3.7754861458110D-01 -3.8204948741697D-01
   186  1.8500000000000D+00  3.7413183879590D-01 -3.7377077175634D-01
   187  1.8600000000000D+00  3.6982838566879D-01 -3.6496501282129D-01
   188  1.8700000000000D+00  3.6469371440336D-01 -3.5568180033127D-01
   189  1.8800000000000D+00  3.5878432680364D-01 -3.4597072078082D-01
   190  1.8900000000000D+00  3.5215748219279D-01 -3.3588115414751D-01
   191  1.9000000000000D+00  3.4487091596455D-01 -3.2546207516321D-01
   192  1.9100000000000D+00  3.3698256341154D-01 -3.1476186030896D-01
   193  1.9200000000000D+00  3.2855028947615D-01 -3.0382810084706D-01
   194  1.9300000000000D+00  3.1963162707006D-01 -2.9270742382677D-01
   195  1.9400000000000D+00  3.1028352339357D-01 -2.8144532045980D-01
   196  1.9500000000000D+00  3.0056209762220D-01 -2.7008598431338D-01
   197  1.9600000000000D+00  2.9052240910232D-01 -2.5867215854072D-01
   198  1.9700000000000D+00  2.8021823858736D-01 -2.4724499392612D-01
   199  1.9800000000000D+00  2.6970188311482D-01 -2.3584391808124D-01
   200  1.9900000000000D+00  2.5902396457023D-01 -2.2450651571611D-01
   201  2.0000000000000D+00  2.4823325514428D-01 -2.1326842223267D-01
   202  2.0100000000000D+00  2.3737651692611D-01 -2.0216322853412D-01
   203  2.0200000000000D+00  2.2649836037390D-01 -1.9122240038608D-01
   204  2.0300000000000D+00  2.1564111875775D-01 -1.8047521014350D-01
   205  2.0400000000000D+00  2.0484474097031D-01 -1.6994868246852D-01
   206  2.0500000000000D+00  1.9414670357420D-01 -1.5966755456873D-01
   207  2.0600000000000D+00  1.8358193933144D-01 -1.4965424890995D-01
   208  2.0700000000000D+00  1.7318278750103D-01 -1.3992886205606D-01
   209  2.0800000000000D+00  1.6297896049154D-01 -1.3050916572882D-01
   210  2.0900000000000D+00  1.5299753097405D-01 -1.2141062288575D-01
   211  2.1000000000000D+00  1.4326293803885D-01 -1.1264641773473D-01
   212  2.1100000000000D+00  1.3379701021663D-01 -1.0422749807787D-01
   213  2.1200000000000D+00  1.2461900978352D-01 -9.6162632966464D-02
   214  2.1300000000000D+00  1.1574569231595D-01 -8.8458481396848D-02
   215  2.1400000000000D+00  1.0719138540112D-01 -8.1119674652296D-02
   216  2.1500000000000D+00  9.8968084490501D-02 -7.4148910812479D-02
   217  2.1600000000000D+00  9.1085563080504D-02 -6.7547059412998D-02
   218  2.1700000000000D+00  8.3551506459530D-02 -6.1313282172793D-02
   219  2.1800000000000D+00  7.6371636434898D-02 -5.5445148949166D-02
   220  2.1900000000000D+00  6.9549873201573D-02 -4.9938777871497D-02
   221  2.2000000000000D+00  6.3088591829269D-02 -4.4789035253460D-02
   222  2.2100000000000D+00  5.6988533492860D-02 -3.9989520924874D-02
   223  2.2200000000000D+00  5.1249232299894D-02 -3.5532874706550D-02
   224  2.2300000000000D+00  4.5869303755331D-02 -3.1410998133532D-02
   225  2.2400000000000D+00  4.0846826997792D-02 -2.7615335646633D-02
   226  2.2500000000000D+00  3.6178714717200D-02 -2.4136519953733D-02
   227  2.2600000000000D+00  3.1860629559092D-02 -2.0964357549988D-02
   228  2.2700000000000D+00  2.7886757250540D-02 -1.8087731472928D-02
   229  2.2800000000000D+00  2.4249778786382D-02 -1.5494630084881D-02
   230  2.2900000000000D+00  2.0940020178431D-02 -1.3171658659078D-02
   231  2.3000000000000D+00  1.7946206498151D-02 -1.1104556374438D-02
   232  2.3100000000000D+00  1.5255564470756D-02 -9.2783049828801D-03
   233  2.3200000000000D+00  1.2854234778828D-02 -7.6774320084271D-03
   234  2.3300000000000D+00  1.0727202908230D-02 -6.2860062505650D-03
   235  2.3400000000000D+00  8.8585715909531D-03 -5.0878488717555D-03
   236  2.3500000000000D+00  7.2317500469232D-03 -4.0666899063433D-03
   237  2.3600000000000D+00  5.8296090788071D-03 -3.2063012384271D-03
   238  2.3700000000000D+00  4.6346588136913D-03 -2.4906422454509D-03
   239  2.3800000000000D+00  3.6292114484585D-03 -1.9039936527147D-03
   240  2.3900000000000D+00  2.7955359416917D-03 -1.4310841163235D-03
   241  2.4000000000000D+00  2.1160072696551D-03 -1.0572115131147D-03
   242  2.4100000000000D+00  1.5732418850158D-03 -7.6835269506796D-04
   243  2.4200000000000D+00  1.1505722830761D-03 -5.5148156370934D-04
   244  2.4300000000000D+00  8.3079240556708D-04 -3.9381063532706D-04
   245  2.4400000000000D+00  5.9750465258202D-04 -2.8367177270086D-04
   246  2.4500000000000D+00  4.3353390150134D-04 -2.0966309433825D-04
   247  2.4600000000000D+00  3.3058331728358D-04 -1.6591855527047D-04
   248  2.4700000000000D+00  2.7831204738895D-04 -1.4611800859103D-04
   249  2.4800000000000D+00  2.6644146760464D-04 -1.4456602817051D-04
   250  2.4900000000000D+00  2.5779083819422D-04 -1.4188770286450D-04
   251  2.5000000000000D+00  2.2412113894800D-04 -1.2376022744348D-04
   252  2.5100000000000D+00  1.4602024914494D-04 -8.0727186836481D-05
   253  2.5200000000000D+00  5.8613009293779D-05 -3.2390864882650D-05
   254  2.5300000000000D+00 -7.8426896845227D-06  4.3557913715193D-06
   255  2.5400000000000D+00 -2.4987582840263D-05  1.3885750644474D-05
   256  2.5500000000000D+00 -1.6092040358261D-05  8.9454766376606D-06
   257  2.5600000000000D+00  1.2486918054420D-06 -6.9431273276090D-07
   258  2.5700000000000D+00  5.3883129898847D-06 -2.9972788720459D-06
   259  2.5800000000000D+00  4.0720573707306D-06 -2.2658600398676D-06
   260  2.5900000000000D+00 -8.5922540036946D-08  4.7417804752423D-08
   261  2.6000000000000D+00 -6.2829264252091D-07  3.4673390518519D-07
   262  2.6100000000000D+00 -5.4690628072801D-07  3.0181946700230D-07
   263  2.6200000000000D+00 -5.2974384451174D-10  2.9234808674249D-10
   264  2.6300000000000D+00  0.0000000000000D+00  0.0000000000000D+00
   265  2.6400000000000D+00  0.0000000000000D+00  0.0000000000000D+00
   266  2.6500000000000D+00  0.0000000000000D+00  0.0000000000000D+00
   267  2.6600000000000D+00  0.0000000000000D+00  0.0000000000000D+00
   268  2.6700000000000D+00  0.0000000000000D+00  0.0000000000000D+00
   269  2.6800000000000D+00  0.0000000000000D+00  0.0000000000000D+00
   270  2.6900000000000D+00  0.0000000000000D+00  0.0000000000000D+00
   271  2.7000000000000D+00  0.0000000000000D+00  0.0000000000000D+00
   272  2.7100000000000D+00  0.0000000000000D+00  0.0000000000000D+00
   273  2.7200000000000D+00  0.0000000000000D+00  0.0000000000000D+00
   274  2.7300000000000D+00  0.0000000000000D+00  0.0000000000000D+00
   275  2.7400000000000D+00  0.0000000000000D+00  0.0000000000000D+00
   276  2.7500000000000D+00  0.0000000000000D+00  0.0000000000000D+00
   277  2.7600000000000D+00  0.0000000000000D+00  0.0000000000000D+00
   278  2.7700000000000D+00  0.0000000000000D+00  0.0000000000000D+00
   279  2.7800000000000D+00  0.0000000000000D+00  0.0000000000000D+00
   280  2.7900000000000D+00  0.0000000000000D+00  0.0000000000000D+00
   281  2.8000000000000D+00  0.0000000000000D+00  0.0000000000000D+00
   282  2.8100000000000D+00  0.0000000000000D+00  0.0000000000000D+00
   283  2.8200000000000D+00  0.0000000000000D+00  0.0000000000000D+00
   284  2.8300000000000D+00  0.0000000000000D+00  0.0000000000000D+00
   285  2.8400000000000D+00  0.0000000000000D+00  0.0000000000000D+00
   286  2.8500000000000D+00  0.0000000000000D+00  0.0000000000000D+00
   287  2.8600000000000D+00  0.0000000000000D+00  0.0000000000000D+00
   288  2.8700000000000D+00  0.0000000000000D+00  0.0000000000000D+00
   289  2.8800000000000D+00  0.0000000000000D+00  0.0000000000000D+00
   290  2.8900000000000D+00  0.0000000000000D+00  0.0000000000000D+00
   291  2.9000000000000D+00  0.0000000000000D+00  0.0000000000000D+00
   292  2.9100000000000D+00  0.0000000000000D+00  0.0000000000000D+00
   293  2.9200000000000D+00  0.0000000000000D+00  0.0000000000000D+00
   294  2.9300000000000D+00  0.0000000000000D+00  0.0000000000000D+00
   295  2.9400000000000D+00  0.0000000000000D+00  0.0000000000000D+00
   296  2.9500000000000D+00  0.0000000000000D+00  0.0000000000000D+00
   297  2.9600000000000D+00  0.0000000000000D+00  0.0000000000000D+00
   298  2.9700000000000D+00  0.0000000000000D+00  0.0000000000000D+00
   299  2.9800000000000D+00  0.0000000000000D+00  0.0000000000000D+00
   300  2.9900000000000D+00  0.0000000000000D+00  0.0000000000000D+00
   301  3.0000000000000D+00  0.0000000000000D+00  0.0000000000000D+00
   302  3.0100000000000D+00  0.0000000000000D+00  0.0000000000000D+00
   303  3.0200000000000D+00  0.0000000000000D+00  0.0000000000000D+00
   304  3.0300000000000D+00  0.0000000000000D+00  0.0000000000000D+00
   305  3.0400000000000D+00  0.0000000000000D+00  0.0000000000000D+00
   306  3.0500000000000D+00  0.0000000000000D+00  0.0000000000000D+00
   307  3.0600000000000D+00  0.0000000000000D+00  0.0000000000000D+00
   308  3.0700000000000D+00  0.0000000000000D+00  0.0000000000000D+00
   309  3.0800000000000D+00  0.0000000000000D+00  0.0000000000000D+00
   310  3.0900000000000D+00  0.0000000000000D+00  0.0000000000000D+00
   311  3.1000000000000D+00  0.0000000000000D+00  0.0000000000000D+00
   312  3.1100000000000D+00  0.0000000000000D+00  0.0000000000000D+00
   313  3.1200000000000D+00  0.0000000000000D+00  0.0000000000000D+00
   314  3.1300000000000D+00  0.0000000000000D+00  0.0000000000000D+00
   315  3.1400000000000D+00  0.0000000000000D+00  0.0000000000000D+00
   316  3.1500000000000D+00  0.0000000000000D+00  0.0000000000000D+00
   317  3.1600000000000D+00  0.0000000000000D+00  0.0000000000000D+00
   318  3.1700000000000D+00  0.0000000000000D+00  0.0000000000000D+00
   319  3.1800000000000D+00  0.0000000000000D+00  0.0000000000000D+00
   320  3.1900000000000D+00  0.0000000000000D+00  0.0000000000000D+00
   321  3.2000000000000D+00  0.0000000000000D+00  0.0000000000000D+00
   322  3.2100000000000D+00  0.0000000000000D+00  0.0000000000000D+00
   323  3.2200000000000D+00  0.0000000000000D+00  0.0000000000000D+00
   324  3.2300000000000D+00  0.0000000000000D+00  0.0000000000000D+00
   325  3.2400000000000D+00  0.0000000000000D+00  0.0000000000000D+00
   326  3.2500000000000D+00  0.0000000000000D+00  0.0000000000000D+00
   327  3.2600000000000D+00  0.0000000000000D+00  0.0000000000000D+00
   328  3.2700000000000D+00  0.0000000000000D+00  0.0000000000000D+00
   329  3.2800000000000D+00  0.0000000000000D+00  0.0000000000000D+00
   330  3.2900000000000D+00  0.0000000000000D+00  0.0000000000000D+00
   331  3.3000000000000D+00  0.0000000000000D+00  0.0000000000000D+00
   332  3.3100000000000D+00  0.0000000000000D+00  0.0000000000000D+00
   333  3.3200000000000D+00  0.0000000000000D+00  0.0000000000000D+00
   334  3.3300000000000D+00  0.0000000000000D+00  0.0000000000000D+00
   335  3.3400000000000D+00  0.0000000000000D+00  0.0000000000000D+00
   336  3.3500000000000D+00  0.0000000000000D+00  0.0000000000000D+00
   337  3.3600000000000D+00  0.0000000000000D+00  0.0000000000000D+00
   338  3.3700000000000D+00  0.0000000000000D+00  0.0000000000000D+00
   339  3.3800000000000D+00  0.0000000000000D+00  0.0000000000000D+00
   340  3.3900000000000D+00  0.0000000000000D+00  0.0000000000000D+00
   341  3.4000000000000D+00  0.0000000000000D+00  0.0000000000000D+00
   342  3.4100000000000D+00  0.0000000000000D+00  0.0000000000000D+00
   343  3.4200000000000D+00  0.0000000000000D+00  0.0000000000000D+00
   344  3.4300000000000D+00  0.0000000000000D+00  0.0000000000000D+00
   345  3.4400000000000D+00  0.0000000000000D+00  0.0000000000000D+00
   346  3.4500000000000D+00  0.0000000000000D+00  0.0000000000000D+00
   347  3.4600000000000D+00  0.0000000000000D+00  0.0000000000000D+00
   348  3.4700000000000D+00  0.0000000000000D+00  0.0000000000000D+00
   349  3.4800000000000D+00  0.0000000000000D+00  0.0000000000000D+00
   350  3.4900000000000D+00  0.0000000000000D+00  0.0000000000000D+00
   351  3.5000000000000D+00  0.0000000000000D+00  0.0000000000000D+00
   352  3.5100000000000D+00  0.0000000000000D+00  0.0000000000000D+00
   353  3.5200000000000D+00  0.0000000000000D+00  0.0000000000000D+00
   354  3.5300000000000D+00  0.0000000000000D+00  0.0000000000000D+00
   355  3.5400000000000D+00  0.0000000000000D+00  0.0000000000000D+00
   356  3.5500000000000D+00  0.0000000000000D+00  0.0000000000000D+00
   357  3.5600000000000D+00  0.0000000000000D+00  0.0000000000000D+00
   358  3.5700000000000D+00  0.0000000000000D+00  0.0000000000000D+00
   359  3.5800000000000D+00  0.0000000000000D+00  0.0000000000000D+00
   360  3.5900000000000D+00  0.0000000000000D+00  0.0000000000000D+00
   361  3.6000000000000D+00  0.0000000000000D+00  0.0000000000000D+00
   362  3.6100000000000D+00  0.0000000000000D+00  0.0000000000000D+00
   363  3.6200000000000D+00  0.0000000000000D+00  0.0000000000000D+00
   364  3.6300000000000D+00  0.0000000000000D+00  0.0000000000000D+00
   365  3.6400000000000D+00  0.0000000000000D+00  0.0000000000000D+00
   366  3.6500000000000D+00  0.0000000000000D+00  0.0000000000000D+00
   367  3.6600000000000D+00  0.0000000000000D+00  0.0000000000000D+00
   368  3.6700000000000D+00  0.0000000000000D+00  0.0000000000000D+00
   369  3.6800000000000D+00  0.0000000000000D+00  0.0000000000000D+00
   370  3.6900000000000D+00  0.0000000000000D+00  0.0000000000000D+00
   371  3.7000000000000D+00  0.0000000000000D+00  0.0000000000000D+00
   372  3.7100000000000D+00  0.0000000000000D+00  0.0000000000000D+00
   373  3.7200000000000D+00  0.0000000000000D+00  0.0000000000000D+00
   374  3.7300000000000D+00  0.0000000000000D+00  0.0000000000000D+00
   375  3.7400000000000D+00  0.0000000000000D+00  0.0000000000000D+00
   376  3.7500000000000D+00  0.0000000000000D+00  0.0000000000000D+00
   377  3.7600000000000D+00  0.0000000000000D+00  0.0000000000000D+00
   378  3.7700000000000D+00  0.0000000000000D+00  0.0000000000000D+00
   379  3.7800000000000D+00  0.0000000000000D+00  0.0000000000000D+00
   380  3.7900000000000D+00  0.0000000000000D+00  0.0000000000000D+00
   381  3.8000000000000D+00  0.0000000000000D+00  0.0000000000000D+00
   382  3.8100000000000D+00  0.0000000000000D+00  0.0000000000000D+00
   383  3.8200000000000D+00  0.0000000000000D+00  0.0000000000000D+00
   384  3.8300000000000D+00  0.0000000000000D+00  0.0000000000000D+00
   385  3.8400000000000D+00  0.0000000000000D+00  0.0000000000000D+00
   386  3.8500000000000D+00  0.0000000000000D+00  0.0000000000000D+00
   387  3.8600000000000D+00  0.0000000000000D+00  0.0000000000000D+00
   388  3.8700000000000D+00  0.0000000000000D+00  0.0000000000000D+00
   389  3.8800000000000D+00  0.0000000000000D+00  0.0000000000000D+00
   390  3.8900000000000D+00  0.0000000000000D+00  0.0000000000000D+00
   391  3.9000000000000D+00  0.0000000000000D+00  0.0000000000000D+00
   392  3.9100000000000D+00  0.0000000000000D+00  0.0000000000000D+00
   393  3.9200000000000D+00  0.0000000000000D+00  0.0000000000000D+00
   394  3.9300000000000D+00  0.0000000000000D+00  0.0000000000000D+00
   395  3.9400000000000D+00  0.0000000000000D+00  0.0000000000000D+00
   396  3.9500000000000D+00  0.0000000000000D+00  0.0000000000000D+00
   397  3.9600000000000D+00  0.0000000000000D+00  0.0000000000000D+00
   398  3.9700000000000D+00  0.0000000000000D+00  0.0000000000000D+00
   399  3.9800000000000D+00  0.0000000000000D+00  0.0000000000000D+00
   400  3.9900000000000D+00  0.0000000000000D+00  0.0000000000000D+00
   401  4.0000000000000D+00  0.0000000000000D+00  0.0000000000000D+00
   402  4.0100000000000D+00  0.0000000000000D+00  0.0000000000000D+00
   403  4.0200000000000D+00  0.0000000000000D+00  0.0000000000000D+00
   404  4.0300000000000D+00  0.0000000000000D+00  0.0000000000000D+00
   405  4.0400000000000D+00  0.0000000000000D+00  0.0000000000000D+00
   406  4.0500000000000D+00  0.0000000000000D+00  0.0000000000000D+00
   407  4.0600000000000D+00  0.0000000000000D+00  0.0000000000000D+00
   408  4.0700000000000D+00  0.0000000000000D+00  0.0000000000000D+00
   409  4.0800000000000D+00  0.0000000000000D+00  0.0000000000000D+00
   410  4.0900000000000D+00  0.0000000000000D+00  0.0000000000000D+00
   411  4.1000000000000D+00  0.0000000000000D+00  0.0000000000000D+00
   412  4.1100000000000D+00  0.0000000000000D+00  0.0000000000000D+00
   413  4.1200000000000D+00  0.0000000000000D+00  0.0000000000000D+00
   414  4.1300000000000D+00  0.0000000000000D+00  0.0000000000000D+00
   415  4.1400000000000D+00  0.0000000000000D+00  0.0000000000000D+00
   416  4.1500000000000D+00  0.0000000000000D+00  0.0000000000000D+00
   417  4.1600000000000D+00  0.0000000000000D+00  0.0000000000000D+00
   418  4.1700000000000D+00  0.0000000000000D+00  0.0000000000000D+00
   419  4.1800000000000D+00  0.0000000000000D+00  0.0000000000000D+00
   420  4.1900000000000D+00  0.0000000000000D+00  0.0000000000000D+00
   421  4.2000000000000D+00  0.0000000000000D+00  0.0000000000000D+00
   422  4.2100000000000D+00  0.0000000000000D+00  0.0000000000000D+00