Ca    ONCVPSP-3.3.1  r_core=   2.24135   2.49537   2.43654
     20.0000     10.0000      210904    zatom,zion,pspd
     8      11   2     4   600     0    pspcod,pspxc,lmax,lloc,mmax,r2well
  5.99000000  0.00000000  0.00000000    rchrg fchrg qchrg
     2     2     2     0    nproj
     3     1           extension_switch
     4     4     0    nprojso
   0                        -3.8738973246598D-01  2.5584967722598D+00
     1  0.0000000000000D+00  1.4010230475758D-11  8.8757334815170D-12
     2  1.0000000000000D-02  6.6752199753679D-03  5.7051016325259D-02
     3  2.0000000000000D-02  1.3369600078192D-02  1.1401382614413D-01
     4  3.0000000000000D-02  2.0102200477798D-02  1.7080034483017D-01
     5  4.0000000000000D-02  2.6891882007384D-02  2.2732273159269D-01
     6  5.0000000000000D-02  3.3757207942702D-02  2.8349351158195D-01
     7  6.0000000000000D-02  4.0716347506920D-02  3.3922569821279D-01
     8  7.0000000000000D-02  4.7786981660524D-02  3.9443291576912D-01
     9  8.0000000000000D-02  5.4986211721143D-02  4.4902952234252D-01
    10  9.0000000000000D-02  6.2330471340799D-02  5.0293073314749D-01
    11  1.0000000000000D-01  6.9835442347487D-02  5.5605274424283D-01
    12  1.1000000000000D-01  7.7515974934291D-02  6.0831285667356D-01
    13  1.2000000000000D-01  8.5386012652550D-02  6.5962960103134D-01
    14  1.3000000000000D-01  9.3458522636097D-02  7.0992286241287D-01
    15  1.4000000000000D-01  1.0174543145152D-01  7.5911400573601D-01
    16  1.5000000000000D-01  1.1025756693478D-01  8.0712600135207D-01
    17  1.6000000000000D-01  1.1900460633789D-01  8.5388355087043D-01
    18  1.7000000000000D-01  1.2799503107035D-01  8.9931321308830D-01
    19  1.8000000000000D-01  1.3723608828000D-01  9.4334352989429D-01
    20  1.9000000000000D-01  1.4673375947518D-01  9.8590515198964D-01
    21  2.0000000000000D-01  1.5649273634775D-01  1.0269309642459D+00
    22  2.1000000000000D-01  1.6651640391130D-01  1.0663562104923D+00
    23  2.2000000000000D-01  1.7680683102470D-01  1.1041186175016D+00
    24  2.3000000000000D-01  1.8736476832524D-01  1.1401585179165D+00
    25  2.4000000000000D-01  1.9818965355012D-01  1.1744189718360D+00
    26  2.5000000000000D-01  2.0927962417985D-01  1.2068458867559D+00
    27  2.6000000000000D-01  2.2063153729164D-01  1.2373881355359D+00
    28  2.7000000000000D-01  2.3224099646685D-01  1.2659976720422D+00
    29  2.8000000000000D-01  2.4410238555302D-01  1.2926296440960D+00
    30  2.9000000000000D-01  2.5620890903864D-01  1.3172425033378D+00
    31  3.0000000000000D-01  2.6855263875855D-01  1.3397981116011D+00
    32  3.1000000000000D-01  2.8112456660829D-01  1.3602618433747D+00
    33  3.2000000000000D-01  2.9391466290936D-01  1.3786026839160D+00
    34  3.3000000000000D-01  3.0691194003203D-01  1.3947933225729D+00
    35  3.4000000000000D-01  3.2010452085054D-01  1.4088102408576D+00
    36  3.5000000000000D-01  3.3347971157539D-01  1.4206337948130D+00
    37  3.6000000000000D-01  3.4702407848083D-01  1.4302482912090D+00
    38  3.7000000000000D-01  3.6072352802183D-01  1.4376420571055D+00
    39  3.8000000000000D-01  3.7456338981390D-01  1.4428075023202D+00
    40  3.9000000000000D-01  3.8852850193197D-01  1.4457411743471D+00
    41  4.0000000000000D-01  4.0260329797052D-01  1.4464438052787D+00
    42  4.1000000000000D-01  4.1677189529645D-01  1.4449203502973D+00
    43  4.2000000000000D-01  4.3101818391958D-01  1.4411800173151D+00
    44  4.3000000000000D-01  4.4532591540221D-01  1.4352362873620D+00
    45  4.4000000000000D-01  4.5967879122956D-01  1.4271069253382D+00
    46  4.5000000000000D-01  4.7406055006712D-01  1.4168139807767D+00
    47  4.6000000000000D-01  4.8845505333839D-01  1.4043837782844D+00
    48  4.7000000000000D-01  5.0284636856803D-01  1.3898468973620D+00
    49  4.8000000000000D-01  5.1721884995025D-01  1.3732381413354D+00
    50  4.9000000000000D-01  5.3155721562053D-01  1.3545964951669D+00
    51  5.0000000000000D-01  5.4584662113055D-01  1.3339650719514D+00
    52  5.1000000000000D-01  5.6007272865127D-01  1.3113910479446D+00
    53  5.2000000000000D-01  5.7422177145683D-01  1.2869255860113D+00
    54  5.3000000000000D-01  5.8828061327331D-01  1.2606237474275D+00
    55  5.4000000000000D-01  6.0223680210984D-01  1.2325443920153D+00
    56  5.5000000000000D-01  6.1607861822598D-01  1.2027500666389D+00
    57  5.6000000000000D-01  6.2979511592784D-01  1.1713068821372D+00
    58  5.7000000000000D-01  6.4337615892601D-01  1.1382843788207D+00
    59  5.8000000000000D-01  6.5681244903120D-01  1.1037553807108D+00
    60  5.9000000000000D-01  6.7009554800731D-01  1.0677958387512D+00
    61  6.0000000000000D-01  6.8321789244723D-01  1.0304846632737D+00
    62  6.1000000000000D-01  6.9617280158317D-01  9.9190354605088D-01
    63  6.2000000000000D-01  7.0895447799054D-01  9.5213677232381D-01
    64  6.3000000000000D-01  7.2155800119205D-01  9.1127102323912D-01
    65  6.4000000000000D-01  7.3397931421647D-01  8.6939516918409D-01
    66  6.5000000000000D-01  7.4621520321429D-01  8.2660005455535D-01
    67  6.6000000000000D-01  7.5826327027979D-01  7.8297827454539D-01
    68  6.7000000000000D-01  7.7012189967525D-01  7.3862394457655D-01
    69  6.8000000000000D-01  7.8179021769874D-01  6.9363246305637D-01
    70  6.9000000000000D-01  7.9326804648095D-01  6.4810026816965D-01
    71  7.0000000000000D-01  8.0455585203892D-01  6.0212458946172D-01
    72  7.1000000000000D-01  8.1565468695515D-01  5.5580319500336D-01
    73  7.2000000000000D-01  8.2656612808891D-01  5.0923413496139D-01
    74  7.3000000000000D-01  8.3729220976276D-01  4.6251548242847D-01
    75  7.4000000000000D-01  8.4783535290023D-01  4.1574507239202D-01
    76  7.5000000000000D-01  8.5819829062138D-01  3.6902023974499D-01
    77  7.6000000000000D-01  8.6838399083006D-01  3.2243755725975D-01
    78  7.7000000000000D-01  8.7839557635076D-01  2.7609257446105D-01
    79  7.8000000000000D-01  8.8823624319363D-01  2.3007955834458D-01
    80  7.9000000000000D-01  8.9790917754292D-01  1.8449123689380D-01
    81  8.0000000000000D-01  9.0741747207761D-01  1.3941854634928D-01
    82  8.1000000000000D-01  9.1676404224204D-01  9.4950383182307D-02
    83  8.2000000000000D-01  9.2595154309000D-01  5.1173361717043D-02
    84  8.3000000000000D-01  9.3498228732697D-01  8.1715783337066D-03
    85  8.4000000000000D-01  9.4385816517271D-01 -3.3973616831116D-02
    86  8.5000000000000D-01  9.5258056665950D-01 -7.5183839791966D-02
    87  8.6000000000000D-01  9.6115030697098D-01 -1.1538388336013D-01
    88  8.7000000000000D-01  9.6956755541150D-01 -1.5450191768762D-01
    89  8.8000000000000D-01  9.7783176857737D-01 -1.9246967990392D-01
    90  8.9000000000000D-01  9.8594162827905D-01 -2.2922265207836D-01
    91  9.0000000000000D-01  9.9389498473698D-01 -2.6470022678326D-01
    92  9.1000000000000D-01  1.0016888055440D+00 -2.9884585957954D-01
    93  9.2000000000000D-01  1.0093191308541D+00 -3.3160720779622D-01
    94  9.3000000000000D-01  1.0167810352208D+00 -3.6293625502884D-01
    95  9.4000000000000D-01  1.0240685964693D+00 -3.9278942083857D-01
    96  9.5000000000000D-01  1.0311748719429D+00 -4.2112765519319D-01
    97  9.6000000000000D-01  1.0380918824217D+00 -4.4791651725351D-01
    98  9.7000000000000D-01  1.0448106039616D+00 -4.7312623817418D-01
    99  9.8000000000000D-01  1.0513209678548D+00 -4.9673176765322D-01
   100  9.9000000000000D-01  1.0576118688607D+00 -5.1871280403438D-01
   101  1.0000000000000D+00  1.0636711818038D+00 -5.3905380783627D-01
   102  1.0100000000000D+00  1.0694857865819D+00 -5.5774399865275D-01
   103  1.0200000000000D+00  1.0750416015744D+00 -5.7477733544133D-01
   104  1.0300000000000D+00  1.0803236253840D+00 -5.9015248028771D-01
   105  1.0400000000000D+00  1.0853159867901D+00 -6.0387274580977D-01
   106  1.0500000000000D+00  1.0900020027426D+00 -6.1594602642900D-01
   107  1.0600000000000D+00  1.0943642441619D+00 -6.2638471381725D-01
   108  1.0700000000000D+00  1.0983846092655D+00 -6.3520559689038D-01
   109  1.0800000000000D+00  1.1020444040858D+00 -6.4242974679047D-01
   110  1.0900000000000D+00  1.1053244297926D+00 -6.4808238736821D-01
   111  1.1000000000000D+00  1.1082050763906D+00 -6.5219275173184D-01
   112  1.1100000000000D+00  1.1106664223093D+00 -6.5479392550326D-01
   113  1.1200000000000D+00  1.1126883393628D+00 -6.5592267747184D-01
   114  1.1300000000000D+00  1.1142506025137D+00 -6.5561927839800D-01
   115  1.1400000000000D+00  1.1153330038426D+00 -6.5392730876399D-01
   116  1.1500000000000D+00  1.1159154700850D+00 -6.5089345632414D-01
   117  1.1600000000000D+00  1.1159781830664D+00 -6.4656730434947D-01
   118  1.1700000000000D+00  1.1155017023435D+00 -6.4100111150286D-01
   119  1.1800000000000D+00  1.1144670893347D+00 -6.3424958430926D-01
   120  1.1900000000000D+00  1.1128560322027D+00 -6.2636964322759D-01
   121  1.2000000000000D+00  1.1106509707376D+00 -6.1742018335042D-01
   122  1.2100000000000D+00  1.1078352204832D+00 -6.0746183077842D-01
   123  1.2200000000000D+00  1.1043930953382D+00 -5.9655669573316D-01
   124  1.2300000000000D+00  1.1003100278653D+00 -5.8476812348632D-01
   125  1.2400000000000D+00  1.0955726865498D+00 -5.7216044418058D-01
   126  1.2500000000000D+00  1.0901690892482D+00 -5.5879872262584D-01
   127  1.2600000000000D+00  1.0840887120868D+00 -5.4474850914613D-01
   128  1.2700000000000D+00  1.0773225930978D+00 -5.3007559253290D-01
   129  1.2800000000000D+00  1.0698634298766D+00 -5.1484575616425D-01
   130  1.2900000000000D+00  1.0617056705951D+00 -4.9912453831289D-01
   131  1.3000000000000D+00  1.0528455977434D+00 -4.8297699762824D-01
   132  1.3100000000000D+00  1.0432814039650D+00 -4.6646748478972D-01
   133  1.3200000000000D+00  1.0330132594376D+00 -4.4965942124712D-01
   134  1.3300000000000D+00  1.0220433702949D+00 -4.3261508592146D-01
   135  1.3400000000000D+00  1.0103760275614D+00 -4.1539541076686D-01
   136  1.3500000000000D+00  9.9801764622791D-01 -3.9805978593736D-01
   137  1.3600000000000D+00  9.8497679408256D-01 -3.8066587531814D-01
   138  1.3700000000000D+00  9.7126420993948D-01 -3.6326944315179D-01
   139  1.3800000000000D+00  9.5689281108894D-01 -3.4592419230580D-01
   140  1.3900000000000D+00  9.4187768969187D-01 -3.2868161482949D-01
   141  1.4000000000000D+00  9.2623609801870D-01 -3.1159085526765D-01
   142  1.4100000000000D+00  9.0998742250794D-01 -2.9469858711153D-01
   143  1.4200000000000D+00  8.9315314651792D-01 -2.7804890288381D-01
   144  1.4300000000000D+00  8.7575680198398D-01 -2.6168321798263D-01
   145  1.4400000000000D+00  8.5782390998121D-01 -2.4564018864198D-01
   146  1.4500000000000D+00  8.3938191043610D-01 -2.2995564410077D-01
   147  1.4600000000000D+00  8.2046008128811D-01 -2.1466253299914D-01
   148  1.4700000000000D+00  8.0108944728157D-01 -1.9979088416789D-01
   149  1.4800000000000D+00  7.8130267897439D-01 -1.8536778149961D-01
   150  1.4900000000000D+00  7.6113398218597D-01 -1.7141735301999D-01
   151  1.5000000000000D+00  7.4061897857364D-01 -1.5796077372478D-01
   152  1.5100000000000D+00  7.1979457778131D-01 -1.4501628203453D-01
   153  1.5200000000000D+00  6.9869884179927D-01 -1.3259920949496D-01
   154  1.5300000000000D+00  6.7737084225647D-01 -1.2072202322254D-01
   155  1.5400000000000D+00  6.5585051121890D-01 -1.0939438081473D-01
   156  1.5500000000000D+00  6.3417848644317D-01 -9.8623196909015D-02
   157  1.5600000000000D+00  6.1239595164367D-01 -8.8412721146923D-02
   158  1.5700000000000D+00  5.9054447283170D-01 -7.8764626551606D-02
   159  1.5800000000000D+00  5.6866583138106D-01 -6.9678107950953D-02
   160  1.5900000000000D+00  5.4680185485810D-01 -6.1149989459156D-02
   161  1.6000000000000D+00  5.2499424640259D-01 -5.3174840447410D-02
   162  1.6100000000000D+00  5.0328441365785D-01 -4.5745099059914D-02
   163  1.6200000000000D+00  4.8171329811665D-01 -3.8851202542974D-02
   164  1.6300000000000D+00  4.6032120586434D-01 -3.2481723468628D-02
   165  1.6400000000000D+00  4.3914764059696D-01 -2.6623511021995D-02
   166  1.6500000000000D+00  4.1823113990505D-01 -2.1261836431509D-02
   167  1.6600000000000D+00  3.9760911564518D-01 -1.6380541681094D-02
   168  1.6700000000000D+00  3.7731769941884D-01 -1.1962190555711D-02
   169  1.6800000000000D+00  3.5739159386835D-01 -7.9882211920430D-03
   170  1.6900000000000D+00  3.3786393084402D-01 -4.4390991426047D-03
   171  1.7000000000000D+00  3.1876613700284D-01 -1.2944702062829D-03
   172  1.7100000000000D+00  3.0012780791119D-01  1.4666880073360D-03
   173  1.7200000000000D+00  2.8197659105334D-01  3.8659164198618D-03
   174  1.7300000000000D+00  2.6433807879087D-01  5.9251277784868D-03
   175  1.7400000000000D+00  2.4723571154380D-01  7.6664634413175D-03
   176  1.7500000000000D+00  2.3069069212893D-01  9.1121546537833D-03
   177  1.7600000000000D+00  2.1472191146585D-01  1.0284388797455D-02
   178  1.7700000000000D+00  1.9934588635396D-01  1.1205181467017D-02
   179  1.7800000000000D+00  1.8457670958735D-01  1.1896254888357D-02
   180  1.7900000000000D+00  1.7042601271586D-01  1.2378923250244D-02
   181  1.8000000000000D+00  1.5690294193500D-01  1.2673985626505D-02
   182  1.8100000000000D+00  1.4401414682511D-01  1.2801626604635D-02
   183  1.8200000000000D+00  1.3176378282291D-01  1.2781325625974D-02
   184  1.8300000000000D+00  1.2015352636167D-01  1.2631774508559D-02
   185  1.8400000000000D+00  1.0918260413815D-01  1.2370804654949D-02
   186  1.8500000000000D+00  9.8847834527488D-02  1.2015322625785D-02
   187  1.8600000000000D+00  8.9143683122241D-02  1.1581256059744D-02
   188  1.8700000000000D+00  8.0062329956008D-02  1.1083508183396D-02
   189  1.8800000000000D+00  7.1593750032768D-02  1.0535922640264D-02
   190  1.8900000000000D+00  6.3725805255929D-02  9.9512572931693D-03
   191  1.9000000000000D+00  5.6444348274164D-02  9.3411678052489D-03
   192  1.9100000000000D+00  4.9733337332142D-02  8.7162005081915D-03
   193  1.9200000000000D+00  4.3574961294647D-02  8.0857941552977D-03
   194  1.9300000000000D+00  3.7949775055711D-02  7.4582911138299D-03
   195  1.9400000000000D+00  3.2836843213477D-02  6.8409563479210D-03
   196  1.9500000000000D+00  2.8213893013437D-02  6.2400055670613D-03
   197  1.9600000000000D+00  2.4057473996720D-02  5.6606403762847D-03
   198  1.9700000000000D+00  2.0343124901820D-02  5.1070914416180D-03
   199  1.9800000000000D+00  1.7045546096851D-02  4.5826682784499D-03
   200  1.9900000000000D+00  1.4138776862929D-02  4.0898154338124D-03
   201  2.0000000000000D+00  1.1596376826123D-02  3.6301748022765D-03
   202  2.0100000000000D+00  9.3916100249208D-03  3.2046527642021D-03
   203  2.0200000000000D+00  7.4976312074894D-03  2.8134924740052D-03
   204  2.0300000000000D+00  5.8876729649904D-03  2.4563498425641D-03
   205  2.0400000000000D+00  4.5352327906155D-03  2.1323730798335D-03
   206  2.0500000000000D+00  3.4142591355311D-03  1.8402849844333D-03
   207  2.0600000000000D+00  2.4993354900326D-03  1.5784673018520D-03
   208  2.0700000000000D+00  1.7658635170891D-03  1.3450486232697D-03
   209  2.0800000000000D+00  1.1902304842080D-03  1.1379824226111D-03
   210  2.0900000000000D+00  7.5000026974801D-04  9.5515094880786D-04
   211  2.1000000000000D+00  4.2406109515822D-04  7.9443471221480D-04
   212  2.1100000000000D+00  1.9276297830469D-04  6.5377775482061D-04
   213  2.1200000000000D+00  3.8094906429677D-05  5.3129663871665D-04
   214  2.1300000000000D+00 -5.6017194580836D-05  4.2549378833693D-04
   215  2.1400000000000D+00 -1.0383392402626D-04  3.3511108528415D-04
   216  2.1500000000000D+00 -1.1782869912180D-04  2.5907287516812D-04
   217  2.1600000000000D+00 -1.0873412349690D-04  1.9641529998121D-04
   218  2.1700000000000D+00 -8.5490913585858D-05  1.4624864172480D-04
   219  2.1800000000000D+00 -5.5834648813896D-05  1.0736211325993D-04
   220  2.1900000000000D+00 -2.5949144987013D-05  7.8354455977509D-05
   221  2.2000000000000D+00 -3.4532973021644D-07  5.7651278326414D-05
   222  2.2100000000000D+00  1.9577774415618D-05  4.4846151001916D-05
   223  2.2200000000000D+00  3.3780783430577D-05  3.9403361410981D-05
   224  2.2300000000000D+00  4.1048465818064D-05  3.7741518504991D-05
   225  2.2400000000000D+00  3.9417464858783D-05  3.4267261553983D-05
   226  2.2500000000000D+00  2.7179571960081D-05  2.3368333013298D-05
   227  2.2600000000000D+00  1.1200061544034D-05  9.6731568431179D-06
   228  2.2700000000000D+00 -1.2369845634551D-06 -1.0282027464956D-06
   229  2.2800000000000D+00 -4.2119642947065D-06 -3.4892019503541D-06
   230  2.2900000000000D+00 -2.0513893118010D-06 -1.6966773589377D-06
   231  2.3000000000000D+00  5.5213602332902D-07  4.5165908657350D-07
   232  2.3100000000000D+00  9.3289355867564D-07  7.6069429985322D-07
   233  2.3200000000000D+00  2.8871905848882D-07  2.3481170477046D-07
   234  2.3300000000000D+00 -8.3639012140844D-08 -7.2660696294220D-08
   235  2.3400000000000D+00 -9.9840817835993D-08 -8.6735880265197D-08
   236  2.3500000000000D+00 -1.0265364317283D-08 -8.9179498886431D-09
   237  2.3600000000000D+00  0.0000000000000D+00  0.0000000000000D+00
   238  2.3700000000000D+00  0.0000000000000D+00  0.0000000000000D+00
   239  2.3800000000000D+00  0.0000000000000D+00  0.0000000000000D+00
   240  2.3900000000000D+00  0.0000000000000D+00  0.0000000000000D+00
   241  2.4000000000000D+00  0.0000000000000D+00  0.0000000000000D+00
   242  2.4100000000000D+00  0.0000000000000D+00  0.0000000000000D+00
   243  2.4200000000000D+00  0.0000000000000D+00  0.0000000000000D+00
   244  2.4300000000000D+00  0.0000000000000D+00  0.0000000000000D+00
   245  2.4400000000000D+00  0.0000000000000D+00  0.0000000000000D+00
   246  2.4500000000000D+00  0.0000000000000D+00  0.0000000000000D+00
   247  2.4600000000000D+00  0.0000000000000D+00  0.0000000000000D+00
   248  2.4700000000000D+00  0.0000000000000D+00  0.0000000000000D+00
   249  2.4800000000000D+00  0.0000000000000D+00  0.0000000000000D+00
   250  2.4900000000000D+00  0.0000000000000D+00  0.0000000000000D+00
   251  2.5000000000000D+00  0.0000000000000D+00  0.0000000000000D+00
   252  2.5100000000000D+00  0.0000000000000D+00  0.0000000000000D+00
   253  2.5200000000000D+00  0.0000000000000D+00  0.0000000000000D+00
   254  2.5300000000000D+00  0.0000000000000D+00  0.0000000000000D+00
   255  2.5400000000000D+00  0.0000000000000D+00  0.0000000000000D+00
   256  2.5500000000000D+00  0.0000000000000D+00  0.0000000000000D+00
   257  2.5600000000000D+00  0.0000000000000D+00  0.0000000000000D+00
   258  2.5700000000000D+00  0.0000000000000D+00  0.0000000000000D+00
   259  2.5800000000000D+00  0.0000000000000D+00  0.0000000000000D+00
   260  2.5900000000000D+00  0.0000000000000D+00  0.0000000000000D+00
   261  2.6000000000000D+00  0.0000000000000D+00  0.0000000000000D+00
   262  2.6100000000000D+00  0.0000000000000D+00  0.0000000000000D+00
   263  2.6200000000000D+00  0.0000000000000D+00  0.0000000000000D+00
   264  2.6300000000000D+00  0.0000000000000D+00  0.0000000000000D+00
   265  2.6400000000000D+00  0.0000000000000D+00  0.0000000000000D+00
   266  2.6500000000000D+00  0.0000000000000D+00  0.0000000000000D+00
   267  2.6600000000000D+00  0.0000000000000D+00  0.0000000000000D+00
   268  2.6700000000000D+00  0.0000000000000D+00  0.0000000000000D+00
   269  2.6800000000000D+00  0.0000000000000D+00  0.0000000000000D+00
   270  2.6900000000000D+00  0.0000000000000D+00  0.0000000000000D+00
   271  2.7000000000000D+00  0.0000000000000D+00  0.0000000000000D+00
   272  2.7100000000000D+00  0.0000000000000D+00  0.0000000000000D+00
   273  2.7200000000000D+00  0.0000000000000D+00  0.0000000000000D+00
   274  2.7300000000000D+00  0.0000000000000D+00  0.0000000000000D+00
   275  2.7400000000000D+00  0.0000000000000D+00  0.0000000000000D+00
   276  2.7500000000000D+00  0.0000000000000D+00  0.0000000000000D+00
   277  2.7600000000000D+00  0.0000000000000D+00  0.0000000000000D+00
   278  2.7700000000000D+00  0.0000000000000D+00  0.0000000000000D+00
   279  2.7800000000000D+00  0.0000000000000D+00  0.0000000000000D+00
   280  2.7900000000000D+00  0.0000000000000D+00  0.0000000000000D+00
   281  2.8000000000000D+00  0.0000000000000D+00  0.0000000000000D+00
   282  2.8100000000000D+00  0.0000000000000D+00  0.0000000000000D+00
   283  2.8200000000000D+00  0.0000000000000D+00  0.0000000000000D+00
   284  2.8300000000000D+00  0.0000000000000D+00  0.0000000000000D+00
   285  2.8400000000000D+00  0.0000000000000D+00  0.0000000000000D+00
   286  2.8500000000000D+00  0.0000000000000D+00  0.0000000000000D+00
   287  2.8600000000000D+00  0.0000000000000D+00  0.0000000000000D+00
   288  2.8700000000000D+00  0.0000000000000D+00  0.0000000000000D+00
   289  2.8800000000000D+00  0.0000000000000D+00  0.0000000000000D+00
   290  2.8900000000000D+00  0.0000000000000D+00  0.0000000000000D+00
   291  2.9000000000000D+00  0.0000000000000D+00  0.0000000000000D+00
   292  2.9100000000000D+00  0.0000000000000D+00  0.0000000000000D+00
   293  2.9200000000000D+00  0.0000000000000D+00  0.0000000000000D+00
   294  2.9300000000000D+00  0.0000000000000D+00  0.0000000000000D+00
   295  2.9400000000000D+00  0.0000000000000D+00  0.0000000000000D+00
   296  2.9500000000000D+00  0.0000000000000D+00  0.0000000000000D+00
   297  2.9600000000000D+00  0.0000000000000D+00  0.0000000000000D+00
   298  2.9700000000000D+00  0.0000000000000D+00  0.0000000000000D+00
   299  2.9800000000000D+00  0.0000000000000D+00  0.0000000000000D+00
   300  2.9900000000000D+00  0.0000000000000D+00  0.0000000000000D+00
   301  3.0000000000000D+00  0.0000000000000D+00  0.0000000000000D+00
   302  3.0100000000000D+00  0.0000000000000D+00  0.0000000000000D+00
   303  3.0200000000000D+00  0.0000000000000D+00  0.0000000000000D+00
   304  3.0300000000000D+00  0.0000000000000D+00  0.0000000000000D+00
   305  3.0400000000000D+00  0.0000000000000D+00  0.0000000000000D+00
   306  3.0500000000000D+00  0.0000000000000D+00  0.0000000000000D+00
   307  3.0600000000000D+00  0.0000000000000D+00  0.0000000000000D+00
   308  3.0700000000000D+00  0.0000000000000D+00  0.0000000000000D+00
   309  3.0800000000000D+00  0.0000000000000D+00  0.0000000000000D+00
   310  3.0900000000000D+00  0.0000000000000D+00  0.0000000000000D+00
   311  3.1000000000000D+00  0.0000000000000D+00  0.0000000000000D+00
   312  3.1100000000000D+00  0.0000000000000D+00  0.0000000000000D+00
   313  3.1200000000000D+00  0.0000000000000D+00  0.0000000000000D+00
   314  3.1300000000000D+00  0.0000000000000D+00  0.0000000000000D+00
   315  3.1400000000000D+00  0.0000000000000D+00  0.0000000000000D+00
   316  3.1500000000000D+00  0.0000000000000D+00  0.0000000000000D+00
   317  3.1600000000000D+00  0.0000000000000D+00  0.0000000000000D+00
   318  3.1700000000000D+00  0.0000000000000D+00  0.0000000000000D+00
   319  3.1800000000000D+00  0.0000000000000D+00  0.0000000000000D+00
   320  3.1900000000000D+00  0.0000000000000D+00  0.0000000000000D+00
   321  3.2000000000000D+00  0.0000000000000D+00  0.0000000000000D+00
   322  3.2100000000000D+00  0.0000000000000D+00  0.0000000000000D+00
   323  3.2200000000000D+00  0.0000000000000D+00  0.0000000000000D+00
   324  3.2300000000000D+00  0.0000000000000D+00  0.0000000000000D+00
   325  3.2400000000000D+00  0.0000000000000D+00  0.0000000000000D+00
   326  3.2500000000000D+00  0.0000000000000D+00  0.0000000000000D+00
   327  3.2600000000000D+00  0.0000000000000D+00  0.0000000000000D+00
   328  3.2700000000000D+00  0.0000000000000D+00  0.0000000000000D+00
   329  3.2800000000000D+00  0.0000000000000D+00  0.0000000000000D+00
   330  3.2900000000000D+00  0.0000000000000D+00  0.0000000000000D+00
   331  3.3000000000000D+00  0.0000000000000D+00  0.0000000000000D+00
   332  3.3100000000000D+00  0.0000000000000D+00  0.0000000000000D+00
   333  3.3200000000000D+00  0.0000000000000D+00  0.0000000000000D+00
   334  3.3300000000000D+00  0.0000000000000D+00  0.0000000000000D+00
   335  3.3400000000000D+00  0.0000000000000D+00  0.0000000000000D+00
   336  3.3500000000000D+00  0.0000000000000D+00  0.0000000000000D+00
   337  3.3600000000000D+00  0.0000000000000D+00  0.0000000000000D+00
   338  3.3700000000000D+00  0.0000000000000D+00  0.0000000000000D+00
   339  3.3800000000000D+00  0.0000000000000D+00  0.0000000000000D+00
   340  3.3900000000000D+00  0.0000000000000D+00  0.0000000000000D+00
   341  3.4000000000000D+00  0.0000000000000D+00  0.0000000000000D+00
   342  3.4100000000000D+00  0.0000000000000D+00  0.0000000000000D+00
   343  3.4200000000000D+00  0.0000000000000D+00  0.0000000000000D+00
   344  3.4300000000000D+00  0.0000000000000D+00  0.0000000000000D+00
   345  3.4400000000000D+00  0.0000000000000D+00  0.0000000000000D+00
   346  3.4500000000000D+00  0.0000000000000D+00  0.0000000000000D+00
   347  3.4600000000000D+00  0.0000000000000D+00  0.0000000000000D+00
   348  3.4700000000000D+00  0.0000000000000D+00  0.0000000000000D+00
   349  3.4800000000000D+00  0.0000000000000D+00  0.0000000000000D+00
   350  3.4900000000000D+00  0.0000000000000D+00  0.0000000000000D+00
   351  3.5000000000000D+00  0.0000000000000D+00  0.0000000000000D+00
   352  3.5100000000000D+00  0.0000000000000D+00  0.0000000000000D+00
   353  3.5200000000000D+00  0.0000000000000D+00  0.0000000000000D+00
   354  3.5300000000000D+00  0.0000000000000D+00  0.0000000000000D+00
   355  3.5400000000000D+00  0.0000000000000D+00  0.0000000000000D+00
   356  3.5500000000000D+00  0.0000000000000D+00  0.0000000000000D+00
   357  3.5600000000000D+00  0.0000000000000D+00  0.0000000000000D+00
   358  3.5700000000000D+00  0.0000000000000D+00  0.0000000000000D+00
   359  3.5800000000000D+00  0.0000000000000D+00  0.0000000000000D+00
   360  3.5900000000000D+00  0.0000000000000D+00  0.0000000000000D+00
   361  3.6000000000000D+00  0.0000000000000D+00  0.0000000000000D+00
   362  3.6100000000000D+00  0.0000000000000D+00  0.0000000000000D+00
   363  3.6200000000000D+00  0.0000000000000D+00  0.0000000000000D+00
   364  3.6300000000000D+00  0.0000000000000D+00  0.0000000000000D+00
   365  3.6400000000000D+00  0.0000000000000D+00  0.0000000000000D+00
   366  3.6500000000000D+00  0.0000000000000D+00  0.0000000000000D+00
   367  3.6600000000000D+00  0.0000000000000D+00  0.0000000000000D+00
   368  3.6700000000000D+00  0.0000000000000D+00  0.0000000000000D+00
   369  3.6800000000000D+00  0.0000000000000D+00  0.0000000000000D+00
   370  3.6900000000000D+00  0.0000000000000D+00  0.0000000000000D+00
   371  3.7000000000000D+00  0.0000000000000D+00  0.0000000000000D+00
   372  3.7100000000000D+00  0.0000000000000D+00  0.0000000000000D+00
   373  3.7200000000000D+00  0.0000000000000D+00  0.0000000000000D+00
   374  3.7300000000000D+00  0.0000000000000D+00  0.0000000000000D+00
   375  3.7400000000000D+00  0.0000000000000D+00  0.0000000000000D+00
   376  3.7500000000000D+00  0.0000000000000D+00  0.0000000000000D+00
   377  3.7600000000000D+00  0.0000000000000D+00  0.0000000000000D+00
   378  3.7700000000000D+00  0.0000000000000D+00  0.0000000000000D+00
   379  3.7800000000000D+00  0.0000000000000D+00  0.0000000000000D+00
   380  3.7900000000000D+00  0.0000000000000D+00  0.0000000000000D+00
   381  3.8000000000000D+00  0.0000000000000D+00  0.0000000000000D+00
   382  3.8100000000000D+00  0.0000000000000D+00  0.0000000000000D+00
   383  3.8200000000000D+00  0.0000000000000D+00  0.0000000000000D+00
   384  3.8300000000000D+00  0.0000000000000D+00  0.0000000000000D+00
   385  3.8400000000000D+00  0.0000000000000D+00  0.0000000000000D+00
   386  3.8500000000000D+00  0.0000000000000D+00  0.0000000000000D+00
   387  3.8600000000000D+00  0.0000000000000D+00  0.0000000000000D+00
   388  3.8700000000000D+00  0.0000000000000D+00  0.0000000000000D+00
   389  3.8800000000000D+00  0.0000000000000D+00  0.0000000000000D+00
   390  3.8900000000000D+00  0.0000000000000D+00  0.0000000000000D+00
   391  3.9000000000000D+00  0.0000000000000D+00  0.0000000000000D+00
   392  3.9100000000000D+00  0.0000000000000D+00  0.0000000000000D+00
   393  3.9200000000000D+00  0.0000000000000D+00  0.0000000000000D+00
   394  3.9300000000000D+00  0.0000000000000D+00  0.0000000000000D+00
   395  3.9400000000000D+00  0.0000000000000D+00  0.0000000000000D+00
   396  3.9500000000000D+00  0.0000000000000D+00  0.0000000000000D+00
   397  3.9600000000000D+00  0.0000000000000D+00  0.0000000000000D+00
   398  3.9700000000000D+00  0.0000000000000D+00  0.0000000000000D+00
   399  3.9800000000000D+00  0.0000000000000D+00  0.0000000000000D+00
   400  3.9900000000000D+00  0.0000000000000D+00  0.0000000000000D+00
   401  4.0000000000000D+00  0.0000000000000D+00  0.0000000000000D+00
   402  4.0100000000000D+00  0.0000000000000D+00  0.0000000000000D+00
   403  4.0200000000000D+00  0.0000000000000D+00  0.0000000000000D+00
   404  4.0300000000000D+00  0.0000000000000D+00  0.0000000000000D+00
   405  4.0400000000000D+00  0.0000000000000D+00  0.0000000000000D+00
   406  4.0500000000000D+00  0.0000000000000D+00  0.0000000000000D+00
   407  4.0600000000000D+00  0.0000000000000D+00  0.0000000000000D+00
   408  4.0700000000000D+00  0.0000000000000D+00  0.0000000000000D+00
   409  4.0800000000000D+00  0.0000000000000D+00  0.0000000000000D+00
   410  4.0900000000000D+00  0.0000000000000D+00  0.0000000000000D+00
   411  4.1000000000000D+00  0.0000000000000D+00  0.0000000000000D+00
   412  4.1100000000000D+00  0.0000000000000D+00  0.0000000000000D+00
   413  4.1200000000000D+00  0.0000000000000D+00  0.0000000000000D+00
   414  4.1300000000000D+00  0.0000000000000D+00  0.0000000000000D+00
   415  4.1400000000000D+00  0.0000000000000D+00  0.0000000000000D+00
   416  4.1500000000000D+00  0.0000000000000D+00  0.0000000000000D+00
   417  4.1600000000000D+00  0.0000000000000D+00  0.0000000000000D+00
   418  4.1700000000000D+00  0.0000000000000D+00  0.0000000000000D+00
   419  4.1800000000000D+00  0.0000000000000D+00  0.0000000000000D+00
   420  4.1900000000000D+00  0.0000000000000D+00  0.0000000000000D+00
   421  4.2000000000000D+00  0.0000000000000D+00  0.0000000000000D+00
   422  4.2100000000000D+00  0.0000000000000D+00  0.0000000000000D+00