Ca    ONCVPSP-3.3.1  r_core=   2.24135   2.49537   2.43654
     20.0000     10.0000      210904    zatom,zion,pspd
     8      11   2     4   600     0    pspcod,pspxc,lmax,lloc,mmax,r2well
  5.99000000  0.00000000  0.00000000    rchrg fchrg qchrg
     2     2     2     0     0    nproj
     1     1           extension_switch
   0                         2.5578781869180D+00 -3.8769578681092D-01
     1  0.0000000000000D+00  8.8881124682416D-12  1.4002972392735D-11
     2  1.0000000000000D-02  5.7051887950331D-02  6.6804113038552D-03
     3  2.0000000000000D-02  1.1401556288198D-01  1.3379978443400D-02
     4  3.0000000000000D-02  1.7080293364426D-01  2.0117757344253D-02
     5  4.0000000000000D-02  2.2732615289851D-01  2.6912604691562D-02
     6  5.0000000000000D-02  2.8349773921208D-01  3.3783079755385D-02
     7  6.0000000000000D-02  3.3923069937140D-01  4.0747347940876D-02
     8  7.0000000000000D-02  3.9443865097677D-01  4.7823086621740D-02
     9  8.0000000000000D-02  4.4903594537250D-01  5.5027393801371D-02
    10  9.0000000000000D-02  5.0293779095505D-01  6.2376700128809D-02
    11  1.0000000000000D-01  5.5606037688874D-01  6.9886684776006D-02
    12  1.1000000000000D-01  6.0832099724379D-01  7.7572195659246D-02
    13  1.2000000000000D-01  6.5963817555479D-01  8.5447174460909D-02
    14  1.3000000000000D-01  7.0993178977920D-01  9.3524586878262D-02
    15  1.4000000000000D-01  7.5912319761566D-01  1.0181635849397D-01
    16  1.5000000000000D-01  8.0713536212093D-01  1.1033331662838D-01
    17  1.6000000000000D-01  8.5389297754144D-01  1.1908513849710D-01
    18  1.7000000000000D-01  8.9932259525259D-01  1.2808030595840D-01
    19  1.8000000000000D-01  9.4335274967435D-01  1.3732606709480D-01
    20  1.9000000000000D-01  9.8591408400705D-01  1.4682840483097D-01
    21  2.0000000000000D-01  1.0269394756064D+00  1.5659201274695D-01
    22  2.1000000000000D-01  1.0663641607906D+00  1.6662027820153D-01
    23  2.2000000000000D-01  1.1041258588487D+00  1.7691527283545D-01
    24  2.3000000000000D-01  1.1401648949917D+00  1.8747775047915D-01
    25  2.4000000000000D-01  1.1744243219666D+00  1.9830715244364D-01
    26  2.5000000000000D-01  1.2068500400266D+00  2.0940162012830D-01
    27  2.6000000000000D-01  1.2373909149298D+00  2.2075801483397D-01
    28  2.7000000000000D-01  1.2659988936159D+00  2.3237194462537D-01
    29  2.8000000000000D-01  1.2926291171909D+00  2.4423779804389D-01
    30  2.9000000000000D-01  1.3172400308289D+00  2.5634878442910D-01
    31  3.0000000000000D-01  1.3397934901850D+00  2.6869698056707D-01
    32  3.1000000000000D-01  1.3602548638979D+00  2.8127338334448D-01
    33  3.2000000000000D-01  1.3785931317453D+00  2.9406796805056D-01
    34  3.3000000000000D-01  1.3947809780078D+00  3.0706975193422D-01
    35  3.4000000000000D-01  1.4087948795854D+00  3.2026686259135D-01
    36  3.5000000000000D-01  1.4206151884078D+00  3.3364661072774D-01
    37  3.6000000000000D-01  1.4302262076736D+00  3.4719556681610D-01
    38  3.7000000000000D-01  1.4376162614560D+00  3.6089964114191D-01
    39  3.8000000000000D-01  1.4427777572129D+00  3.7474416671217D-01
    40  3.9000000000000D-01  1.4457072407472D+00  3.8871398448363D-01
    41  4.0000000000000D-01  1.4464054431684D+00  4.0279353035328D-01
    42  4.1000000000000D-01  1.4448773194230D+00  4.1696692334327D-01
    43  4.2000000000000D-01  1.4411320779713D+00  4.3121805440542D-01
    44  4.3000000000000D-01  1.4351832012089D+00  4.4553067526758D-01
    45  4.4000000000000D-01  1.4270484562524D+00  4.5988848674404D-01
    46  4.5000000000000D-01  1.4167498957303D+00  4.7427522593655D-01
    47  4.6000000000000D-01  1.4043138482508D+00  4.8867475175997D-01
    48  4.7000000000000D-01  1.3897708982442D+00  5.0307112823810D-01
    49  4.8000000000000D-01  1.3731558549135D+00  5.1744870502988D-01
    50  4.9000000000000D-01  1.3545077100614D+00  5.3179219466462D-01
    51  5.0000000000000D-01  1.3338695845973D+00  5.4608674598645D-01
    52  5.1000000000000D-01  1.3112886635728D+00  5.6031801333337D-01
    53  5.2000000000000D-01  1.2868161196328D+00  5.7447222100392D-01
    54  5.3000000000000D-01  1.2605070248150D+00  5.8853622259579D-01
    55  5.4000000000000D-01  1.2324202506783D+00  6.0249755483416D-01
    56  5.5000000000000D-01  1.2026183567872D+00  6.1634448554387D-01
    57  5.6000000000000D-01  1.1711674676273D+00  6.3006605545815D-01
    58  5.7000000000000D-01  1.1381371380809D+00  6.4365211359712D-01
    59  5.8000000000000D-01  1.1036002076393D+00  6.5709334599187D-01
    60  5.9000000000000D-01  1.0676326435824D+00  6.7038129757412D-01
    61  6.0000000000000D-01  1.0303133734071D+00  6.8350838709664D-01
    62  6.1000000000000D-01  9.9172410683937D-01  6.9646791499616D-01
    63  6.2000000000000D-01  9.5194914781357D-01  7.0925406415766D-01
    64  6.3000000000000D-01  9.1107519685899D-01  7.2186189358663D-01
    65  6.4000000000000D-01  8.6919114437833D-01  7.3428732504341D-01
    66  6.5000000000000D-01  8.2638785535573D-01  7.4652712274174D-01
    67  6.6000000000000D-01  7.8275794607837D-01  7.5857886626051D-01
    68  6.7000000000000D-01  7.3839555350139D-01  7.7044091686426D-01
    69  6.8000000000000D-01  6.9339609793056D-01  7.8211237747334D-01
    70  6.9000000000000D-01  6.4785603973806D-01  7.9359304656881D-01
    71  7.0000000000000D-01  6.0187263086630D-01  8.0488336635939D-01
    72  7.1000000000000D-01  5.5554366191069D-01  8.1598436557839D-01
    73  7.2000000000000D-01  5.0896720560537D-01  8.2689759731695D-01
    74  7.3000000000000D-01  4.6224135756624D-01  8.3762507233583D-01
    75  7.4000000000000D-01  4.1546397517134D-01  8.4816918833123D-01
    76  7.5000000000000D-01  3.6873241548178D-01  8.5853265566056D-01
    77  7.6000000000000D-01  3.2214327312484D-01  8.6871842006133D-01
    78  7.7000000000000D-01  2.7579211907587D-01  8.7872958292031D-01
    79  7.8000000000000D-01  2.2977324128564D-01  8.8856931967083D-01
    80  7.9000000000000D-01  1.8417938810654D-01  8.9824079691270D-01
    81  8.0000000000000D-01  1.3910151547212D-01  9.0774708886277D-01
    82  8.1000000000000D-01  9.4628538782365D-02  9.1709109375315D-01
    83  8.2000000000000D-01  5.0847090439315D-02  9.2627545079987D-01
    84  8.3000000000000D-01  7.8412839660150D-03  9.3530245836578D-01
    85  8.4000000000000D-01 -3.4307514374648D-02  9.4417399393924D-01
    86  8.5000000000000D-01 -7.5520905565703D-02  9.5289143654320D-01
    87  8.6000000000000D-01 -1.1572366855637D-01  9.6145559217879D-01
    88  8.7000000000000D-01 -1.5484396087664D-01  9.6986662289264D-01
    89  8.8000000000000D-01 -1.9281350834019D-01  9.7812398003887D-01
    90  8.9000000000000D-01 -2.2956778306803D-01  9.8622634228386D-01
    91  9.0000000000000D-01 -2.6504616910783D-01  9.9417155887607D-01
    92  9.1000000000000D-01 -2.9919211497007D-01  1.0019565986733D+00
    93  9.2000000000000D-01 -3.3195327245227D-01  1.0095775053864D+00
    94  9.3000000000000D-01 -3.6328162117605D-01  1.0170293594632D+00
    95  9.4000000000000D-01 -3.9313357831836D-01  1.0243062469939D+00
    96  9.5000000000000D-01 -4.2147009307803D-01  1.0314012359823D+00
    97  9.6000000000000D-01 -4.4825672548097D-01  1.0383063602754D+00
    98  9.7000000000000D-01 -4.7346370919266D-01  1.0450126114039D+00
    99  9.8000000000000D-01 -4.9706599807234D-01  1.0515099385315D+00
   100  9.9000000000000D-01 -5.1904329627277D-01  1.0577872566626D+00
   101  1.0000000000000D+00 -5.3938007175954D-01  1.0638324632057D+00
   102  1.0100000000000D+00 -5.5806555319432D-01  1.0696324629350D+00
   103  1.0200000000000D+00 -5.7509371019882D-01  1.0751732013401D+00
   104  1.0300000000000D+00 -5.9046321708787D-01  1.0804397062974D+00
   105  1.0400000000000D+00 -6.0417740023458D-01  1.0854161379423D+00
   106  1.0500000000000D+00 -6.1624416929620D-01  1.0900858465693D+00
   107  1.0600000000000D+00 -6.2667593260836D-01  1.0944314383292D+00
   108  1.0700000000000D+00 -6.3548949711970D-01  1.0984348484405D+00
   109  1.0800000000000D+00 -6.4270595330864D-01  1.1020774215833D+00
   110  1.0900000000000D+00 -6.4835054559436D-01  1.1053399990879D+00
   111  1.1000000000000D+00 -6.5245252880850D-01  1.1082030124890D+00
   112  1.1100000000000D+00 -6.5504501136859D-01  1.1106465829647D+00
   113  1.1200000000000D+00 -6.5616478584425D-01  1.1126506261373D+00
   114  1.1300000000000D+00 -6.5585214766846D-01  1.1141949616712D+00
   115  1.1400000000000D+00 -6.5415070279183D-01  1.1152594270706D+00
   116  1.1500000000000D+00 -6.5110716513258D-01  1.1158239950386D+00
   117  1.1600000000000D+00 -6.4677114471765D-01  1.1158688937310D+00
   118  1.1700000000000D+00 -6.4119492745154D-01  1.1153747292113D+00
   119  1.1800000000000D+00 -6.3443324747795D-01  1.1143226093933D+00
   120  1.1900000000000D+00 -6.2654305314136D-01  1.1126942687333D+00
   121  1.2000000000000D+00 -6.1758326757516D-01  1.1104721929231D+00
   122  1.2100000000000D+00 -6.0761454496396D-01  1.1076397428246D+00
   123  1.2200000000000D+00 -5.9669902354404D-01  1.1041812768818D+00
   124  1.2300000000000D+00 -5.8490007642069D-01  1.1000822712424D+00
   125  1.2400000000000D+00 -5.7228206127826D-01  1.0953294368315D+00
   126  1.2500000000000D+00 -5.5891007006704D-01  1.0899108326199D+00
   127  1.2600000000000D+00 -5.4484967974290D-01  1.0838159743470D+00
   128  1.2700000000000D+00 -5.3016670511594D-01  1.0770359379871D+00
   129  1.2800000000000D+00 -5.1492695486818D-01  1.0695634572439D+00
   130  1.2900000000000D+00 -4.9919599176371D-01  1.0613930144080D+00
   131  1.3000000000000D+00 -4.8303889803696D-01  1.0525209239524D+00
   132  1.3100000000000D+00 -4.6652004695680D-01  1.0429454082297D+00
   133  1.3200000000000D+00 -4.4970288148275D-01  1.0326666647250D+00
   134  1.3300000000000D+00 -4.3264970088710D-01  1.0216869243616D+00
   135  1.3400000000000D+00 -4.1542145624387D-01  1.0100105003294D+00
   136  1.3500000000000D+00 -3.9807755552878D-01  9.9764382706772D-01
   137  1.3600000000000D+00 -3.8067567909031D-01  9.8459548901438D-01
   138  1.3700000000000D+00 -3.6327160622234D-01  9.7087623876677D-01
   139  1.3800000000000D+00 -3.4591905338526D-01  9.5649900447688D-01
   140  1.3900000000000D+00 -3.2866952472354D-01  9.4147888620472D-01
   141  1.4000000000000D+00 -3.1157217534755D-01  9.2583314112980D-01
   142  1.4100000000000D+00 -2.9467368776026D-01  9.0958115759654D-01
   143  1.4200000000000D+00 -2.7801816192543D-01  8.9274441786689D-01
   144  1.4300000000000D+00 -2.6164701910264D-01  8.7534644979275D-01
   145  1.4400000000000D+00 -2.4559891980635D-01  8.5741276740795D-01
   146  1.4500000000000D+00 -2.2990969598121D-01  8.3897080068326D-01
   147  1.4600000000000D+00 -2.1461229741227D-01  8.2004981474503D-01
   148  1.4700000000000D+00 -1.9973675253568D-01  8.0068081873783D-01
   149  1.4800000000000D+00 -1.8531014333847D-01  7.8089646491693D-01
   150  1.4900000000000D+00 -1.7135659446550D-01  7.6073093819281D-01
   151  1.5000000000000D+00 -1.5789727609902D-01  7.4021983681640D-01
   152  1.5100000000000D+00 -1.4495042046256D-01  7.1940004464826D-01
   153  1.5200000000000D+00 -1.3253135157666D-01  6.9830959564986D-01
   154  1.5300000000000D+00 -1.2065252776589D-01  6.7698753131778D-01
   155  1.5400000000000D+00 -1.0932359663594D-01  6.5547375163358D-01
   156  1.5500000000000D+00 -9.8551461704732D-02  6.3380886047754D-01
   157  1.5600000000000D+00 -8.8340360443286D-02  6.1203400606415D-01
   158  1.5700000000000D+00 -7.8691952734297D-02  5.9019071745632D-01
   159  1.5800000000000D+00 -6.9605419380146D-02  5.6832073781234D-01
   160  1.5900000000000D+00 -6.1077569672578D-02  5.4646585540233D-01
   161  1.6000000000000D+00 -5.3102957454344D-02  5.2466773317957D-01
   162  1.6100000000000D+00 -4.5674004728346D-02  5.0296773790430D-01
   163  1.6200000000000D+00 -3.8781132081633D-02  4.8140676968517D-01
   164  1.6300000000000D+00 -3.2412895005052D-02  4.6002509291897D-01
   165  1.6400000000000D+00 -2.6556125277258D-02  4.3886216950521D-01
   166  1.6500000000000D+00 -2.1196076491646D-02  4.1795649532531D-01
   167  1.6600000000000D+00 -1.6316572864771D-02  3.9734544080723D-01
   168  1.6700000000000D+00 -1.1900160377073D-02  3.7706509659416D-01
   169  1.6800000000000D+00 -7.9282594172083D-03  3.5715012502609D-01
   170  1.6900000000000D+00 -4.3813179376783D-03  3.3763361848717D-01
   171  1.7000000000000D+00 -1.2389643743514D-03  3.1854696517852D-01
   172  1.7100000000000D+00  1.5198407033928D-03  2.9991972338760D-01
   173  1.7200000000000D+00  3.9166548522157D-03  2.8177950465560D-01
   174  1.7300000000000D+00  5.9734069709562D-03  2.6415186688654D-01
   175  1.7400000000000D+00  7.7122540120391D-03  2.4706021766846D-01
   176  1.7500000000000D+00  9.1554421888736D-03  2.3052572874131D-01
   177  1.7600000000000D+00  1.0325173160766D-02  2.1456726182134D-01
   178  1.7700000000000D+00  1.1243476051552D-02  1.9920130648472D-01
   179  1.7800000000000D+00  1.1932085815117D-02  1.8444193037663D-01
   180  1.7900000000000D+00  1.2412328520562D-02  1.7030074205385D-01
   181  1.8000000000000D+00  1.2705014234230D-02  1.5678686694269D-01
   182  1.8100000000000D+00  1.2830337614480D-02  1.4390693613307D-01
   183  1.8200000000000D+00  1.2807787224883D-02  1.3166508889055D-01
   184  1.8300000000000D+00  1.2656063036468D-02  1.2006298782375D-01
   185  1.8400000000000D+00  1.2393003622181D-02  1.0909984816352D-01
   186  1.8500000000000D+00  1.2035521723297D-02  9.8772479177132D-02
   187  1.8600000000000D+00  1.1599550169647D-02  8.9075339691245D-02
   188  1.8700000000000D+00  1.1099996395869D-02  8.0000605286882D-02
   189  1.8800000000000D+00  1.0550707283959D-02  7.1538248785389D-02
   190  1.8900000000000D+00  9.9644429852543D-03  6.3676132121483D-02
   191  1.9000000000000D+00  9.3528605275588D-03  5.6400110119723D-02
   192  1.9100000000000D+00  8.7265067155614D-03  4.9694145263384D-02
   193  1.9200000000000D+00  8.0948199217438D-03  4.3540432625049D-02
   194  1.9300000000000D+00  7.4661413224578D-03  3.7919535170123D-02
   195  1.9400000000000D+00  6.8477339293046D-03  3.2810527316289D-02
   196  1.9500000000000D+00  6.2458107915091D-03  2.8191147750216D-02
   197  1.9600000000000D+00  5.6655702040039D-03  2.4037958941008D-02
   198  1.9700000000000D+00  5.1112389352139D-03  2.0326513897980D-02
   199  1.9800000000000D+00  4.5861220812691D-03  1.7031528451696D-02
   200  1.9900000000000D+00  4.0926593173427D-03  1.4127058379480D-02
   201  2.0000000000000D+00  3.6324872855061D-03  1.1586680673490D-02
   202  2.0100000000000D+00  3.2065068070124D-03  9.3836774399776D-03
   203  2.0200000000000D+00  2.8149552465862D-03  7.4912220241772D-03
   204  2.0300000000000D+00  2.4574825720338D-03  5.8825659687490D-03
   205  2.0400000000000D+00  2.1332309748752D-03  4.5312258961803D-03
   206  2.0500000000000D+00  1.8409172382588D-03  3.4111693873740D-03
   207  2.0600000000000D+00  1.5789171733042D-03  2.4969988857508D-03
   208  2.0700000000000D+00  1.3453535969301D-03  1.7641346532330D-03
   209  2.0800000000000D+00  1.1381744382923D-03  1.1889820371726D-03
   210  2.0900000000000D+00  9.5525671826376D-04  7.4912228894843D-04
   211  2.1000000000000D+00  7.9447609721086D-04  4.2346014953206D-04
   212  2.1100000000000D+00  6.5377220135397D-04  1.9236116431985D-04
   213  2.1200000000000D+00  5.3125769585642D-04  3.7828676321190D-05
   214  2.1300000000000D+00  4.2543177123670D-04 -5.6198514992774D-05
   215  2.1400000000000D+00  3.3503364832907D-04 -1.0396949681838D-04
   216  2.1500000000000D+00  2.5898555242951D-04 -1.1794751451988D-04
   217  2.1600000000000D+00  1.9632200089900D-04 -1.0885630055755D-04
   218  2.1700000000000D+00  1.4615193498593D-04 -8.5629338809234D-05
   219  2.1800000000000D+00  1.0726380855725D-04 -5.5995124709625D-05
   220  2.1900000000000D+00  7.8255979097586D-05 -2.6131366017081D-05
   221  2.2000000000000D+00  5.7554048338673D-05 -5.4400140166001D-07
   222  2.2100000000000D+00  4.4748594920113D-05  1.9363894803515D-05
   223  2.2200000000000D+00  3.9301250536858D-05  3.3548104195217D-05
   224  2.2300000000000D+00  3.7635866526833D-05  4.0804649644368D-05
   225  2.2400000000000D+00  3.4169718177514D-05  3.9192399186638D-05
   226  2.2500000000000D+00  2.3301749341278D-05  2.7026178548781D-05
   227  2.2600000000000D+00  9.6457055982930D-06  1.1136943046193D-05
   228  2.2700000000000D+00 -1.0252426239277D-06 -1.2301481249668D-06
   229  2.2800000000000D+00 -3.4791556053906D-06 -4.1887629952649D-06
   230  2.2900000000000D+00 -1.6917939485790D-06 -2.0401125304435D-06
   231  2.3000000000000D+00  4.5034436574522D-07  5.4909414342309D-07
   232  2.3100000000000D+00  7.5847731914562D-07  9.2776322106698D-07
   233  2.3200000000000D+00  2.3412668235339D-07  2.8713361564299D-07
   234  2.3300000000000D+00 -7.2453896506476D-08 -8.3162093283838D-08
   235  2.3400000000000D+00 -8.6489021061482D-08 -9.9271514498876D-08
   236  2.3500000000000D+00 -8.8925684893704D-09 -1.0206830079592D-08
   237  2.3600000000000D+00  0.0000000000000D+00  0.0000000000000D+00
   238  2.3700000000000D+00  0.0000000000000D+00  0.0000000000000D+00
   239  2.3800000000000D+00  0.0000000000000D+00  0.0000000000000D+00
   240  2.3900000000000D+00  0.0000000000000D+00  0.0000000000000D+00
   241  2.4000000000000D+00  0.0000000000000D+00  0.0000000000000D+00
   242  2.4100000000000D+00  0.0000000000000D+00  0.0000000000000D+00
   243  2.4200000000000D+00  0.0000000000000D+00  0.0000000000000D+00
   244  2.4300000000000D+00  0.0000000000000D+00  0.0000000000000D+00
   245  2.4400000000000D+00  0.0000000000000D+00  0.0000000000000D+00
   246  2.4500000000000D+00  0.0000000000000D+00  0.0000000000000D+00
   247  2.4600000000000D+00  0.0000000000000D+00  0.0000000000000D+00
   248  2.4700000000000D+00  0.0000000000000D+00  0.0000000000000D+00
   249  2.4800000000000D+00  0.0000000000000D+00  0.0000000000000D+00
   250  2.4900000000000D+00  0.0000000000000D+00  0.0000000000000D+00
   251  2.5000000000000D+00  0.0000000000000D+00  0.0000000000000D+00
   252  2.5100000000000D+00  0.0000000000000D+00  0.0000000000000D+00
   253  2.5200000000000D+00  0.0000000000000D+00  0.0000000000000D+00
   254  2.5300000000000D+00  0.0000000000000D+00  0.0000000000000D+00
   255  2.5400000000000D+00  0.0000000000000D+00  0.0000000000000D+00
   256  2.5500000000000D+00  0.0000000000000D+00  0.0000000000000D+00
   257  2.5600000000000D+00  0.0000000000000D+00  0.0000000000000D+00
   258  2.5700000000000D+00  0.0000000000000D+00  0.0000000000000D+00
   259  2.5800000000000D+00  0.0000000000000D+00  0.0000000000000D+00
   260  2.5900000000000D+00  0.0000000000000D+00  0.0000000000000D+00
   261  2.6000000000000D+00  0.0000000000000D+00  0.0000000000000D+00
   262  2.6100000000000D+00  0.0000000000000D+00  0.0000000000000D+00
   263  2.6200000000000D+00  0.0000000000000D+00  0.0000000000000D+00
   264  2.6300000000000D+00  0.0000000000000D+00  0.0000000000000D+00
   265  2.6400000000000D+00  0.0000000000000D+00  0.0000000000000D+00
   266  2.6500000000000D+00  0.0000000000000D+00  0.0000000000000D+00
   267  2.6600000000000D+00  0.0000000000000D+00  0.0000000000000D+00
   268  2.6700000000000D+00  0.0000000000000D+00  0.0000000000000D+00
   269  2.6800000000000D+00  0.0000000000000D+00  0.0000000000000D+00
   270  2.6900000000000D+00  0.0000000000000D+00  0.0000000000000D+00
   271  2.7000000000000D+00  0.0000000000000D+00  0.0000000000000D+00
   272  2.7100000000000D+00  0.0000000000000D+00  0.0000000000000D+00
   273  2.7200000000000D+00  0.0000000000000D+00  0.0000000000000D+00
   274  2.7300000000000D+00  0.0000000000000D+00  0.0000000000000D+00
   275  2.7400000000000D+00  0.0000000000000D+00  0.0000000000000D+00
   276  2.7500000000000D+00  0.0000000000000D+00  0.0000000000000D+00
   277  2.7600000000000D+00  0.0000000000000D+00  0.0000000000000D+00
   278  2.7700000000000D+00  0.0000000000000D+00  0.0000000000000D+00
   279  2.7800000000000D+00  0.0000000000000D+00  0.0000000000000D+00
   280  2.7900000000000D+00  0.0000000000000D+00  0.0000000000000D+00
   281  2.8000000000000D+00  0.0000000000000D+00  0.0000000000000D+00
   282  2.8100000000000D+00  0.0000000000000D+00  0.0000000000000D+00
   283  2.8200000000000D+00  0.0000000000000D+00  0.0000000000000D+00
   284  2.8300000000000D+00  0.0000000000000D+00  0.0000000000000D+00
   285  2.8400000000000D+00  0.0000000000000D+00  0.0000000000000D+00
   286  2.8500000000000D+00  0.0000000000000D+00  0.0000000000000D+00
   287  2.8600000000000D+00  0.0000000000000D+00  0.0000000000000D+00
   288  2.8700000000000D+00  0.0000000000000D+00  0.0000000000000D+00
   289  2.8800000000000D+00  0.0000000000000D+00  0.0000000000000D+00
   290  2.8900000000000D+00  0.0000000000000D+00  0.0000000000000D+00
   291  2.9000000000000D+00  0.0000000000000D+00  0.0000000000000D+00
   292  2.9100000000000D+00  0.0000000000000D+00  0.0000000000000D+00
   293  2.9200000000000D+00  0.0000000000000D+00  0.0000000000000D+00
   294  2.9300000000000D+00  0.0000000000000D+00  0.0000000000000D+00
   295  2.9400000000000D+00  0.0000000000000D+00  0.0000000000000D+00
   296  2.9500000000000D+00  0.0000000000000D+00  0.0000000000000D+00
   297  2.9600000000000D+00  0.0000000000000D+00  0.0000000000000D+00
   298  2.9700000000000D+00  0.0000000000000D+00  0.0000000000000D+00
   299  2.9800000000000D+00  0.0000000000000D+00  0.0000000000000D+00
   300  2.9900000000000D+00  0.0000000000000D+00  0.0000000000000D+00
   301  3.0000000000000D+00  0.0000000000000D+00  0.0000000000000D+00
   302  3.0100000000000D+00  0.0000000000000D+00  0.0000000000000D+00
   303  3.0200000000000D+00  0.0000000000000D+00  0.0000000000000D+00
   304  3.0300000000000D+00  0.0000000000000D+00  0.0000000000000D+00
   305  3.0400000000000D+00  0.0000000000000D+00  0.0000000000000D+00
   306  3.0500000000000D+00  0.0000000000000D+00  0.0000000000000D+00
   307  3.0600000000000D+00  0.0000000000000D+00  0.0000000000000D+00
   308  3.0700000000000D+00  0.0000000000000D+00  0.0000000000000D+00
   309  3.0800000000000D+00  0.0000000000000D+00  0.0000000000000D+00
   310  3.0900000000000D+00  0.0000000000000D+00  0.0000000000000D+00
   311  3.1000000000000D+00  0.0000000000000D+00  0.0000000000000D+00
   312  3.1100000000000D+00  0.0000000000000D+00  0.0000000000000D+00
   313  3.1200000000000D+00  0.0000000000000D+00  0.0000000000000D+00
   314  3.1300000000000D+00  0.0000000000000D+00  0.0000000000000D+00
   315  3.1400000000000D+00  0.0000000000000D+00  0.0000000000000D+00
   316  3.1500000000000D+00  0.0000000000000D+00  0.0000000000000D+00
   317  3.1600000000000D+00  0.0000000000000D+00  0.0000000000000D+00
   318  3.1700000000000D+00  0.0000000000000D+00  0.0000000000000D+00
   319  3.1800000000000D+00  0.0000000000000D+00  0.0000000000000D+00
   320  3.1900000000000D+00  0.0000000000000D+00  0.0000000000000D+00
   321  3.2000000000000D+00  0.0000000000000D+00  0.0000000000000D+00
   322  3.2100000000000D+00  0.0000000000000D+00  0.0000000000000D+00
   323  3.2200000000000D+00  0.0000000000000D+00  0.0000000000000D+00
   324  3.2300000000000D+00  0.0000000000000D+00  0.0000000000000D+00
   325  3.2400000000000D+00  0.0000000000000D+00  0.0000000000000D+00
   326  3.2500000000000D+00  0.0000000000000D+00  0.0000000000000D+00
   327  3.2600000000000D+00  0.0000000000000D+00  0.0000000000000D+00
   328  3.2700000000000D+00  0.0000000000000D+00  0.0000000000000D+00
   329  3.2800000000000D+00  0.0000000000000D+00  0.0000000000000D+00
   330  3.2900000000000D+00  0.0000000000000D+00  0.0000000000000D+00
   331  3.3000000000000D+00  0.0000000000000D+00  0.0000000000000D+00
   332  3.3100000000000D+00  0.0000000000000D+00  0.0000000000000D+00
   333  3.3200000000000D+00  0.0000000000000D+00  0.0000000000000D+00
   334  3.3300000000000D+00  0.0000000000000D+00  0.0000000000000D+00
   335  3.3400000000000D+00  0.0000000000000D+00  0.0000000000000D+00
   336  3.3500000000000D+00  0.0000000000000D+00  0.0000000000000D+00
   337  3.3600000000000D+00  0.0000000000000D+00  0.0000000000000D+00
   338  3.3700000000000D+00  0.0000000000000D+00  0.0000000000000D+00
   339  3.3800000000000D+00  0.0000000000000D+00  0.0000000000000D+00
   340  3.3900000000000D+00  0.0000000000000D+00  0.0000000000000D+00
   341  3.4000000000000D+00  0.0000000000000D+00  0.0000000000000D+00
   342  3.4100000000000D+00  0.0000000000000D+00  0.0000000000000D+00
   343  3.4200000000000D+00  0.0000000000000D+00  0.0000000000000D+00
   344  3.4300000000000D+00  0.0000000000000D+00  0.0000000000000D+00
   345  3.4400000000000D+00  0.0000000000000D+00  0.0000000000000D+00
   346  3.4500000000000D+00  0.0000000000000D+00  0.0000000000000D+00
   347  3.4600000000000D+00  0.0000000000000D+00  0.0000000000000D+00
   348  3.4700000000000D+00  0.0000000000000D+00  0.0000000000000D+00
   349  3.4800000000000D+00  0.0000000000000D+00  0.0000000000000D+00
   350  3.4900000000000D+00  0.0000000000000D+00  0.0000000000000D+00
   351  3.5000000000000D+00  0.0000000000000D+00  0.0000000000000D+00
   352  3.5100000000000D+00  0.0000000000000D+00  0.0000000000000D+00
   353  3.5200000000000D+00  0.0000000000000D+00  0.0000000000000D+00
   354  3.5300000000000D+00  0.0000000000000D+00  0.0000000000000D+00
   355  3.5400000000000D+00  0.0000000000000D+00  0.0000000000000D+00
   356  3.5500000000000D+00  0.0000000000000D+00  0.0000000000000D+00
   357  3.5600000000000D+00  0.0000000000000D+00  0.0000000000000D+00
   358  3.5700000000000D+00  0.0000000000000D+00  0.0000000000000D+00
   359  3.5800000000000D+00  0.0000000000000D+00  0.0000000000000D+00
   360  3.5900000000000D+00  0.0000000000000D+00  0.0000000000000D+00
   361  3.6000000000000D+00  0.0000000000000D+00  0.0000000000000D+00
   362  3.6100000000000D+00  0.0000000000000D+00  0.0000000000000D+00
   363  3.6200000000000D+00  0.0000000000000D+00  0.0000000000000D+00
   364  3.6300000000000D+00  0.0000000000000D+00  0.0000000000000D+00
   365  3.6400000000000D+00  0.0000000000000D+00  0.0000000000000D+00
   366  3.6500000000000D+00  0.0000000000000D+00  0.0000000000000D+00
   367  3.6600000000000D+00  0.0000000000000D+00  0.0000000000000D+00
   368  3.6700000000000D+00  0.0000000000000D+00  0.0000000000000D+00
   369  3.6800000000000D+00  0.0000000000000D+00  0.0000000000000D+00
   370  3.6900000000000D+00  0.0000000000000D+00  0.0000000000000D+00
   371  3.7000000000000D+00  0.0000000000000D+00  0.0000000000000D+00
   372  3.7100000000000D+00  0.0000000000000D+00  0.0000000000000D+00
   373  3.7200000000000D+00  0.0000000000000D+00  0.0000000000000D+00
   374  3.7300000000000D+00  0.0000000000000D+00  0.0000000000000D+00
   375  3.7400000000000D+00  0.0000000000000D+00  0.0000000000000D+00
   376  3.7500000000000D+00  0.0000000000000D+00  0.0000000000000D+00
   377  3.7600000000000D+00  0.0000000000000D+00  0.0000000000000D+00
   378  3.7700000000000D+00  0.0000000000000D+00  0.0000000000000D+00
   379  3.7800000000000D+00  0.0000000000000D+00  0.0000000000000D+00
   380  3.7900000000000D+00  0.0000000000000D+00  0.0000000000000D+00
   381  3.8000000000000D+00  0.0000000000000D+00  0.0000000000000D+00
   382  3.8100000000000D+00  0.0000000000000D+00  0.0000000000000D+00
   383  3.8200000000000D+00  0.0000000000000D+00  0.0000000000000D+00
   384  3.8300000000000D+00  0.0000000000000D+00  0.0000000000000D+00
   385  3.8400000000000D+00  0.0000000000000D+00  0.0000000000000D+00
   386  3.8500000000000D+00  0.0000000000000D+00  0.0000000000000D+00
   387  3.8600000000000D+00  0.0000000000000D+00  0.0000000000000D+00
   388  3.8700000000000D+00  0.0000000000000D+00  0.0000000000000D+00
   389  3.8800000000000D+00  0.0000000000000D+00  0.0000000000000D+00
   390  3.8900000000000D+00  0.0000000000000D+00  0.0000000000000D+00
   391  3.9000000000000D+00  0.0000000000000D+00  0.0000000000000D+00
   392  3.9100000000000D+00  0.0000000000000D+00  0.0000000000000D+00
   393  3.9200000000000D+00  0.0000000000000D+00  0.0000000000000D+00
   394  3.9300000000000D+00  0.0000000000000D+00  0.0000000000000D+00
   395  3.9400000000000D+00  0.0000000000000D+00  0.0000000000000D+00
   396  3.9500000000000D+00  0.0000000000000D+00  0.0000000000000D+00
   397  3.9600000000000D+00  0.0000000000000D+00  0.0000000000000D+00
   398  3.9700000000000D+00  0.0000000000000D+00  0.0000000000000D+00
   399  3.9800000000000D+00  0.0000000000000D+00  0.0000000000000D+00
   400  3.9900000000000D+00  0.0000000000000D+00  0.0000000000000D+00
   401  4.0000000000000D+00  0.0000000000000D+00  0.0000000000000D+00
   402  4.0100000000000D+00  0.0000000000000D+00  0.0000000000000D+00
   403  4.0200000000000D+00  0.0000000000000D+00  0.0000000000000D+00
   404  4.0300000000000D+00  0.0000000000000D+00  0.0000000000000D+00
   405  4.0400000000000D+00  0.0000000000000D+00  0.0000000000000D+00
   406  4.0500000000000D+00  0.0000000000000D+00  0.0000000000000D+00
   407  4.0600000000000D+00  0.0000000000000D+00  0.0000000000000D+00
   408  4.0700000000000D+00  0.0000000000000D+00  0.0000000000000D+00
   409  4.0800000000000D+00  0.0000000000000D+00  0.0000000000000D+00
   410  4.0900000000000D+00  0.0000000000000D+00  0.0000000000000D+00
   411  4.1000000000000D+00  0.0000000000000D+00  0.0000000000000D+00
   412  4.1100000000000D+00  0.0000000000000D+00  0.0000000000000D+00
   413  4.1200000000000D+00  0.0000000000000D+00  0.0000000000000D+00
   414  4.1300000000000D+00  0.0000000000000D+00  0.0000000000000D+00
   415  4.1400000000000D+00  0.0000000000000D+00  0.0000000000000D+00
   416  4.1500000000000D+00  0.0000000000000D+00  0.0000000000000D+00
   417  4.1600000000000D+00  0.0000000000000D+00  0.0000000000000D+00
   418  4.1700000000000D+00  0.0000000000000D+00  0.0000000000000D+00
   419  4.1800000000000D+00  0.0000000000000D+00  0.0000000000000D+00
   420  4.1900000000000D+00  0.0000000000000D+00  0.0000000000000D+00
   421  4.2000000000000D+00  0.0000000000000D+00  0.0000000000000D+00
   422  4.2100000000000D+00  0.0000000000000D+00  0.0000000000000D+00