Cd    ONCVPSP-3.3.1  r_core=   2.33990   2.70000   3.04207
     48.0000     20.0000      210904    zatom,zion,pspd
     8      11   2     4   600     0    pspcod,pspxc,lmax,lloc,mmax,r2well
  5.99000000  0.00000000  0.00000000    rchrg fchrg qchrg
     2     2     2     0     0    nproj
     1     1           extension_switch
   0                         1.9624354091376D+00 -6.9521655967219D-01
     1  0.0000000000000D+00 -1.8933188350445D-12  5.5706689261470D-12
     2  1.0000000000000D-02  5.6496128638539D-02  1.5296232111188D-02
     3  2.0000000000000D-02  1.1288689597113D-01  3.0606682244856D-02
     4  3.0000000000000D-02  1.6906714904631D-01  4.5945485893312D-02
     5  4.0000000000000D-02  2.2493215123187D-01  6.1326613828764D-02
     6  5.0000000000000D-02  2.8037778940060D-01  7.6763790592460D-02
     7  6.0000000000000D-02  3.3530077994866D-01  9.2270413998941D-02
     8  7.0000000000000D-02  3.8959887325980D-01  1.0785947598722D-01
     9  8.0000000000000D-02  4.4317105623025D-01  1.2354348514522D-01
    10  9.0000000000000D-02  4.9591775247183D-01  1.3933439122669D-01
    11  1.0000000000000D-01  5.4774101981347D-01  1.5524351197199D-01
    12  1.1000000000000D-01  5.9854474472462D-01  1.7128146253410D-01
    13  1.2000000000000D-01  6.4823483328828D-01  1.8745808780089D-01
    14  1.3000000000000D-01  6.9671939835522D-01  2.0378239789252D-01
    15  1.4000000000000D-01  7.4390894251619D-01  2.2026250709978D-01
    16  1.5000000000000D-01  7.8971653653417D-01  2.3690557651504D-01
    17  1.6000000000000D-01  8.3405799288462D-01  2.5371776059207D-01
    18  1.7000000000000D-01  8.7685203405811D-01  2.7070415785509D-01
    19  1.8000000000000D-01  9.1802045528678D-01  2.8786876596003D-01
    20  1.9000000000000D-01  9.5748828136350D-01  3.0521444129315D-01
    21  2.0000000000000D-01  9.9518391723064D-01  3.2274286327349D-01
    22  2.1000000000000D-01  1.0310392920244D+00  3.4045450350635D-01
    23  2.2000000000000D-01  1.0649899962689D+00  3.5834859991475D-01
    24  2.3000000000000D-01  1.0969754119262D+00  3.7642313595572D-01
    25  2.4000000000000D-01  1.1269388350147D+00  3.9467482500705D-01
    26  2.5000000000000D-01  1.1548275905256D+00  4.1309909998920D-01
    27  2.6000000000000D-01  1.1805931393715D+00  4.3169010826516D-01
    28  2.7000000000000D-01  1.2041911771198D+00  4.5044071184005D-01
    29  2.8000000000000D-01  1.2255817242723D+00  4.6934249285985D-01
    30  2.9000000000000D-01  1.2447292078677D+00  4.8838576438746D-01
    31  3.0000000000000D-01  1.2616025341970D+00  5.0755958641260D-01
    32  3.1000000000000D-01  1.2761751524372D+00  5.2685178703064D-01
    33  3.2000000000000D-01  1.2884251090241D+00  5.4624898870441D-01
    34  3.3000000000000D-01  1.2983350925988D+00  5.6573663950254D-01
    35  3.4000000000000D-01  1.3058924693832D+00  5.8529904918753D-01
    36  3.5000000000000D-01  1.3110893088529D+00  6.0491943000711D-01
    37  3.6000000000000D-01  1.3139223995963D+00  6.2457994202368D-01
    38  3.7000000000000D-01  1.3143932552653D+00  6.4426174279811D-01
    39  3.8000000000000D-01  1.3125081105444D+00  6.6394504122700D-01
    40  3.9000000000000D-01  1.3082779070814D+00  6.8360915531559D-01
    41  4.0000000000000D-01  1.3017182693457D+00  7.0323257365331D-01
    42  4.1000000000000D-01  1.2928494703990D+00  7.2279302034392D-01
    43  4.2000000000000D-01  1.2816963875859D+00  7.4226752312892D-01
    44  4.3000000000000D-01  1.2682884481712D+00  7.6163248443053D-01
    45  4.4000000000000D-01  1.2526595649756D+00  7.8086375502900D-01
    46  4.5000000000000D-01  1.2348480620806D+00  7.9993671007939D-01
    47  4.6000000000000D-01  1.2148965907001D+00  8.1882632716403D-01
    48  4.7000000000000D-01  1.1928520353343D+00  8.3750726606940D-01
    49  4.8000000000000D-01  1.1687654103499D+00  8.5595394997024D-01
    50  4.9000000000000D-01  1.1426917471510D+00  8.7414064769897D-01
    51  5.0000000000000D-01  1.1146899721289D+00  8.9204155677484D-01
    52  5.1000000000000D-01  1.0848227756045D+00  9.0963088686580D-01
    53  5.2000000000000D-01  1.0531564719992D+00  9.2688294335498D-01
    54  5.3000000000000D-01  1.0197608514954D+00  9.4377221068496D-01
    55  5.4000000000000D-01  9.8470902346963D-01  9.6027343515482D-01
    56  5.5000000000000D-01  9.4807725200703D-01  9.7636170684889D-01
    57  5.6000000000000D-01  9.0994478382741D-01  9.9201254038081D-01
    58  5.7000000000000D-01  8.7039366897730D-01  1.0072019541431D+00
    59  5.8000000000000D-01  8.2950857466451D-01  1.0219065477593D+00
    60  5.9000000000000D-01  7.8737659263376D-01  1.0361035774463D+00
    61  6.0000000000000D-01  7.4408704050388D-01  1.0497710290011D+00
    62  6.1000000000000D-01  6.9973125750763D-01  1.0628876881427D+00
    63  6.2000000000000D-01  6.5440239509560D-01  1.0754332079463D+00
    64  6.3000000000000D-01  6.0819520288477D-01  1.0873881731248D+00
    65  6.4000000000000D-01  5.6120581045100D-01  1.0987341609255D+00
    66  6.5000000000000D-01  5.1353150548186D-01  1.1094537984240D+00
    67  6.6000000000000D-01  4.6527050882260D-01  1.1195308160156D+00
    68  6.7000000000000D-01  4.1652174696334D-01  1.1289500969204D+00
    69  6.8000000000000D-01  3.6738462252919D-01  1.1376977225349D+00
    70  6.9000000000000D-01  3.1795878334754D-01  1.1457610134839D+00
    71  7.0000000000000D-01  2.6834389067784D-01  1.1531285662417D+00
    72  7.1000000000000D-01  2.1863938719878D-01  1.1597902852151D+00
    73  7.2000000000000D-01  1.6894426535535D-01  1.1657374101948D+00
    74  7.3000000000000D-01  1.1935683667492D-01  1.1709625391082D+00
    75  7.4000000000000D-01  6.9974502665540D-02  1.1754596460203D+00
    76  7.5000000000000D-01  2.0893527912656D-02  1.1792240943540D+00
    77  7.6000000000000D-01 -2.7791184009129D-02  1.1822526453189D+00
    78  7.7000000000000D-01 -7.5986311193465D-02  1.1845434615586D+00
    79  7.8000000000000D-01 -1.2360033001639D-01  1.1860961060454D+00
    80  7.9000000000000D-01 -1.7054372709978D-01  1.1869115362722D+00
    81  8.0000000000000D-01 -2.1672920602401D-01  1.1869920938089D+00
    82  8.1000000000000D-01 -2.6207188819886D-01  1.1863414893100D+00
    83  8.2000000000000D-01 -3.0648950731311D-01  1.1849647830792D+00
    84  8.3000000000000D-01 -3.4990259679689D-01  1.1828683613116D+00
    85  8.4000000000000D-01 -3.9223466974612D-01  1.1800599081544D+00
    86  8.5000000000000D-01 -4.3341239077627D-01  1.1765483737393D+00
    87  8.6000000000000D-01 -4.7336573929220D-01  1.1723439383582D+00
    88  8.7000000000000D-01 -5.1202816368292D-01  1.1674579729666D+00
    89  8.8000000000000D-01 -5.4933672597334D-01  1.1619029962106D+00
    90  8.9000000000000D-01 -5.8523223649133D-01  1.1556926281905D+00
    91  9.0000000000000D-01 -6.1965937813566D-01  1.1488415411795D+00
    92  9.1000000000000D-01 -6.5256681985997D-01  1.1413654075301D+00
    93  9.2000000000000D-01 -6.8390731901903D-01  1.1332808450081D+00
    94  9.3000000000000D-01 -7.1363781225624D-01  1.1246053598018D+00
    95  9.4000000000000D-01 -7.4171949464604D-01  1.1153572874618D+00
    96  9.5000000000000D-01 -7.6811788684027D-01  1.1055557320298D+00
    97  9.6000000000000D-01 -7.9280289000491D-01  1.0952205036208D+00
    98  9.7000000000000D-01 -8.1574882837194D-01  1.0843720547261D+00
    99  9.8000000000000D-01 -8.3693447927034D-01  1.0730314155040D+00
   100  9.9000000000000D-01 -8.5634309054051D-01  1.0612201283271D+00
   101  1.0000000000000D+00 -8.7396238527813D-01  1.0489601818543D+00
   102  1.0100000000000D+00 -8.8978455389372D-01  1.0362739448927D+00
   103  1.0200000000000D+00 -9.0380623351764D-01  1.0231841003108D+00
   104  1.0300000000000D+00 -9.1602847482226D-01  1.0097135792625D+00
   105  1.0400000000000D+00 -9.2645669637525D-01  9.9588549597170D-01
   106  1.0500000000000D+00 -9.3510062668039D-01  9.8172308332525D-01
   107  1.0600000000000D+00 -9.4197423410599D-01  9.6724962951020D-01
   108  1.0700000000000D+00 -9.4709564493867D-01  9.5248841592589D-01
   109  1.0800000000000D+00 -9.5048704984643D-01  9.3746265658955D-01
   110  1.0900000000000D+00 -9.5217459907191D-01  9.2219543924490D-01
   111  1.1000000000000D+00 -9.5218828671697D-01  9.0670966837160D-01
   112  1.1100000000000D+00 -9.5056182451911D-01  8.9102801028080D-01
   113  1.1200000000000D+00 -9.4733250555230D-01  8.7517284047156D-01
   114  1.1300000000000D+00 -9.4254105832716D-01  8.5916619340680D-01
   115  1.1400000000000D+00 -9.3623149179309D-01  8.4302971485590D-01
   116  1.1500000000000D+00 -9.2845093178134D-01  8.2678461693480D-01
   117  1.1600000000000D+00 -9.1924944944981D-01  8.1045163596424D-01
   118  1.1700000000000D+00 -9.0867988232831D-01  7.9405099324638D-01
   119  1.1800000000000D+00 -8.9679764858127D-01  7.7760235884858D-01
   120  1.1900000000000D+00 -8.8366055512863D-01  7.6112481846729D-01
   121  1.2000000000000D+00 -8.6932860028535D-01  7.4463684343152D-01
   122  1.2100000000000D+00 -8.5386377160095D-01  7.2815626388693D-01
   123  1.2200000000000D+00 -8.3732983959208D-01  7.1170024518699D-01
   124  1.2300000000000D+00 -8.1979214807033D-01  6.9528526751001D-01
   125  1.2400000000000D+00 -8.0131740178385D-01  6.7892710869620D-01
   126  1.2500000000000D+00 -7.8197345209012D-01  6.6264083028916D-01
   127  1.2600000000000D+00 -7.6182908138267D-01  6.4644076675754D-01
   128  1.2700000000000D+00 -7.4095378699667D-01  6.3034051785211D-01
   129  1.2800000000000D+00 -7.1941756530884D-01  6.1435294404137D-01
   130  1.2900000000000D+00 -6.9729069674725D-01  5.9849016496470D-01
   131  1.3000000000000D+00 -6.7464353241672D-01  5.8276356082227D-01
   132  1.3100000000000D+00 -6.5154628302094D-01  5.6718377661045D-01
   133  1.3200000000000D+00 -6.2806881076879D-01  5.5176072911092D-01
   134  1.3300000000000D+00 -6.0428042491919D-01  5.3650361652173D-01
   135  1.3400000000000D+00 -5.8024968158239D-01  5.2142093061235D-01
   136  1.3500000000000D+00 -5.5604418842389D-01  5.0652047128774D-01
   137  1.3600000000000D+00 -5.3173041482542D-01  4.9180936342305D-01
   138  1.3700000000000D+00 -5.0737350806245D-01  4.7729407583798D-01
   139  1.3800000000000D+00 -4.8303711605377D-01  4.6298044227170D-01
   140  1.3900000000000D+00 -4.5878321712079D-01  4.4887368421010D-01
   141  1.4000000000000D+00 -4.3467195726159D-01  4.3497843542311D-01
   142  1.4100000000000D+00 -4.1076149533881D-01  4.2129876805928D-01
   143  1.4200000000000D+00 -3.8710785652582D-01  4.0783822015006D-01
   144  1.4300000000000D+00 -3.6376479443245D-01  3.9459982437068D-01
   145  1.4400000000000D+00 -3.4078366209782D-01  3.8158613791021D-01
   146  1.4500000000000D+00 -3.1821329219676D-01  3.6879927329978D-01
   147  1.4600000000000D+00 -2.9609988661994D-01  3.5624093005223D-01
   148  1.4700000000000D+00 -2.7448691557169D-01  3.4391242697410D-01
   149  1.4800000000000D+00 -2.5341502639722D-01  3.3181473499850D-01
   150  1.4900000000000D+00 -2.3292196205630D-01  3.1994851042100D-01
   151  1.5000000000000D+00 -2.1304248946273D-01  3.0831412838474D-01
   152  1.5100000000000D+00 -1.9380833748950D-01  2.9691171651156D-01
   153  1.5200000000000D+00 -1.7524814471541D-01  2.8574118854278D-01
   154  1.5300000000000D+00 -1.5738741673959D-01  2.7480227788362D-01
   155  1.5400000000000D+00 -1.4024849291334D-01  2.6409457094939D-01
   156  1.5500000000000D+00 -1.2385052237613D-01  2.5361754019689D-01
   157  1.5600000000000D+00 -1.0820944902488D-01  2.4337057678070D-01
   158  1.5700000000000D+00 -9.3338005351500D-02  2.3335302270534D-01
   159  1.5800000000000D+00 -7.9245714598422D-02  2.2356420245506D-01
   160  1.5900000000000D+00 -6.5938901164970D-02  2.1400345396726D-01
   161  1.6000000000000D+00 -5.3420708628272D-02  2.0467015895810D-01
   162  1.6100000000000D+00 -4.1691125216607D-02  1.9556377248427D-01
   163  1.6200000000000D+00 -3.0747016106780D-02  1.8668385175491D-01
   164  1.6300000000000D+00 -2.0582162256648D-02  1.7803008410813D-01
   165  1.6400000000000D+00 -1.1187303574481D-02  1.6960231501762D-01
   166  1.6500000000000D+00 -2.5501947543780D-03  1.6140057141310D-01
   167  1.6600000000000D+00  5.3443547054942D-03  1.5342509486493D-01
   168  1.6700000000000D+00  1.2514386510561D-02  1.4567634914600D-01
   169  1.6800000000000D+00  1.8980704819965D-02  1.3815502923237D-01
   170  1.6900000000000D+00  2.4767034552997D-02  1.3086220371928D-01
   171  1.7000000000000D+00  2.9899754252886D-02  1.2379923431005D-01
   172  1.7100000000000D+00  3.4407156641229D-02  1.1696743320482D-01
   173  1.7200000000000D+00  3.8318886338076D-02  1.1036784207668D-01
   174  1.7300000000000D+00  4.1665213864976D-02  1.0400095732320D-01
   175  1.7400000000000D+00  4.4476543811148D-02  9.7866574496665D-02
   176  1.7500000000000D+00  4.6783510971453D-02  9.1963954762829D-02
   177  1.7600000000000D+00  4.8616890193191D-02  8.6291890455387D-02
   178  1.7700000000000D+00  5.0007384025406D-02  8.0848689186845D-02
   179  1.7800000000000D+00  5.0985539586484D-02  7.5632229549042D-02
   180  1.7900000000000D+00  5.1581619339992D-02  7.0639985077298D-02
   181  1.8000000000000D+00  5.1825493812079D-02  6.5869055663407D-02
   182  1.8100000000000D+00  5.1746537520886D-02  6.1316195578408D-02
   183  1.8200000000000D+00  5.1373530807511D-02  5.6977839905553D-02
   184  1.8300000000000D+00  5.0734568525961D-02  5.2850129567027D-02
   185  1.8400000000000D+00  4.9856974983313D-02  4.8928934971931D-02
   186  1.8500000000000D+00  4.8767226072721D-02  4.5209878490335D-02
   187  1.8600000000000D+00  4.7490878028333D-02  4.1688355764112D-02
   188  1.8700000000000D+00  4.6052503465037D-02  3.8359556040153D-02
   189  1.8800000000000D+00  4.4475634388840D-02  3.5218481560120D-02
   190  1.8900000000000D+00  4.2782712371152D-02  3.2259966128144D-02
   191  1.9000000000000D+00  4.0995045998923D-02  2.9478692958380D-02
   192  1.9100000000000D+00  3.9132775174636D-02  2.6869211811779D-02
   193  1.9200000000000D+00  3.7214842907117D-02  2.4425955631001D-02
   194  1.9300000000000D+00  3.5258973544822D-02  2.2143256547814D-02
   195  1.9400000000000D+00  3.3281658437926D-02  2.0015361559546D-02
   196  1.9500000000000D+00  3.1298147835636D-02  1.8036447700362D-02
   197  1.9600000000000D+00  2.9322449629447D-02  1.6200636937992D-02
   198  1.9700000000000D+00  2.7367334329165D-02  1.4502010740305D-02
   199  1.9800000000000D+00  2.5444346035517D-02  1.2934624349106D-02
   200  1.9900000000000D+00  2.3563819575727D-02  1.1492520899958D-02
   201  2.0000000000000D+00  2.1734902738841D-02  1.0169745199972D-02
   202  2.0100000000000D+00  1.9965584302585D-02  8.9603574633398D-03
   203  2.0200000000000D+00  1.8262726597465D-02  7.8584467408867D-03
   204  2.0300000000000D+00  1.6632102894771D-02  6.8581442459631D-03
   205  2.0400000000000D+00  1.5078439041240D-02  5.9536365043129D-03
   206  2.0500000000000D+00  1.3605458818396D-02  5.1391782706621D-03
   207  2.0600000000000D+00  1.2215933039486D-02  4.4091053601229D-03
   208  2.0700000000000D+00  1.0911731517101D-02  3.7578471724736D-03
   209  2.0800000000000D+00  9.6938778709011D-03  3.1799390865481D-03
   210  2.0900000000000D+00  8.5626065708828D-03  2.6700345797081D-03
   211  2.1000000000000D+00  7.5174218278318D-03  2.2229170701285D-03
   212  2.1100000000000D+00  6.5571579350824D-03  1.8335115221320D-03
   213  2.1200000000000D+00  5.6800406985815D-03  1.4968956677787D-03
   214  2.1300000000000D+00  4.8837493477361D-03  1.2083109241207D-03
   215  2.1400000000000D+00  4.1654787341229D-03  9.6317290238667D-04
   216  2.1500000000000D+00  3.5220013556504D-03  7.5708148872448D-04
   217  2.1600000000000D+00  2.9497285161127D-03  5.8583047521290D-04
   218  2.1700000000000D+00  2.4447708921117D-03  4.4541669334787D-04
   219  2.1800000000000D+00  2.0029973031367D-03  3.3204859968193D-04
   220  2.1900000000000D+00  1.6200918696312D-03  2.4215429514061D-04
   221  2.2000000000000D+00  1.2916093994857D-03  1.7238895909147D-04
   222  2.2100000000000D+00  1.0130276411889D-03  1.1964158260576D-04
   223  2.2200000000000D+00  7.7979755499011D-04  8.1041093855030D-05
   224  2.2300000000000D+00  5.8739015694427D-04  5.3961734630050D-05
   225  2.2400000000000D+00  4.3133979890580D-04  3.6027668651359D-05
   226  2.2500000000000D+00  3.0728489140426D-04  2.5116941215585D-05
   227  2.2600000000000D+00  2.1100106748768D-04  1.9376224219879D-05
   228  2.2700000000000D+00  1.3843640921707D-04  1.7210685182643D-05
   229  2.2800000000000D+00  8.5758905741345D-05  1.7200019370216D-05
   230  2.2900000000000D+00  4.9339163781508D-05  1.8105923737605D-05
   231  2.3000000000000D+00  2.5788606746879D-05  1.9342445929266D-05
   232  2.3100000000000D+00  1.1975366019986D-05  2.0781049533501D-05
   233  2.3200000000000D+00  5.1674479106673D-06  2.2715299572893D-05
   234  2.3300000000000D+00  2.5880271007349D-06  2.3332423842054D-05
   235  2.3400000000000D+00  1.9413611608635D-06  2.1014403854608D-05
   236  2.3500000000000D+00  1.3037946487449D-06  1.3851304553234D-05
   237  2.3600000000000D+00  5.8068639032562D-07  5.5552356433842D-06
   238  2.3700000000000D+00 -5.5269995380815D-08 -7.1717328220744D-07
   239  2.3800000000000D+00 -1.7483945056147D-07 -2.2305609702236D-06
   240  2.3900000000000D+00 -9.6929340687004D-08 -1.2069258258657D-06
   241  2.4000000000000D+00  1.1480245057762D-08  2.3212383414223D-07
   242  2.4100000000000D+00  2.3738804732957D-08  5.0307212209688D-07
   243  2.4200000000000D+00  1.1052248361578D-08  2.4386674631089D-07
   244  2.4300000000000D+00 -3.0909885556524D-09 -3.3433571480779D-08
   245  2.4400000000000D+00 -5.4812221242508D-09 -5.9287450727712D-08
   246  2.4500000000000D+00 -2.3092786840392D-09 -2.4978233520366D-08
   247  2.4600000000000D+00  0.0000000000000D+00  0.0000000000000D+00
   248  2.4700000000000D+00  0.0000000000000D+00  0.0000000000000D+00
   249  2.4800000000000D+00  0.0000000000000D+00  0.0000000000000D+00
   250  2.4900000000000D+00  0.0000000000000D+00  0.0000000000000D+00
   251  2.5000000000000D+00  0.0000000000000D+00  0.0000000000000D+00
   252  2.5100000000000D+00  0.0000000000000D+00  0.0000000000000D+00
   253  2.5200000000000D+00  0.0000000000000D+00  0.0000000000000D+00
   254  2.5300000000000D+00  0.0000000000000D+00  0.0000000000000D+00
   255  2.5400000000000D+00  0.0000000000000D+00  0.0000000000000D+00
   256  2.5500000000000D+00  0.0000000000000D+00  0.0000000000000D+00
   257  2.5600000000000D+00  0.0000000000000D+00  0.0000000000000D+00
   258  2.5700000000000D+00  0.0000000000000D+00  0.0000000000000D+00
   259  2.5800000000000D+00  0.0000000000000D+00  0.0000000000000D+00
   260  2.5900000000000D+00  0.0000000000000D+00  0.0000000000000D+00
   261  2.6000000000000D+00  0.0000000000000D+00  0.0000000000000D+00
   262  2.6100000000000D+00  0.0000000000000D+00  0.0000000000000D+00
   263  2.6200000000000D+00  0.0000000000000D+00  0.0000000000000D+00
   264  2.6300000000000D+00  0.0000000000000D+00  0.0000000000000D+00
   265  2.6400000000000D+00  0.0000000000000D+00  0.0000000000000D+00
   266  2.6500000000000D+00  0.0000000000000D+00  0.0000000000000D+00
   267  2.6600000000000D+00  0.0000000000000D+00  0.0000000000000D+00
   268  2.6700000000000D+00  0.0000000000000D+00  0.0000000000000D+00
   269  2.6800000000000D+00  0.0000000000000D+00  0.0000000000000D+00
   270  2.6900000000000D+00  0.0000000000000D+00  0.0000000000000D+00
   271  2.7000000000000D+00  0.0000000000000D+00  0.0000000000000D+00
   272  2.7100000000000D+00  0.0000000000000D+00  0.0000000000000D+00
   273  2.7200000000000D+00  0.0000000000000D+00  0.0000000000000D+00
   274  2.7300000000000D+00  0.0000000000000D+00  0.0000000000000D+00
   275  2.7400000000000D+00  0.0000000000000D+00  0.0000000000000D+00
   276  2.7500000000000D+00  0.0000000000000D+00  0.0000000000000D+00
   277  2.7600000000000D+00  0.0000000000000D+00  0.0000000000000D+00
   278  2.7700000000000D+00  0.0000000000000D+00  0.0000000000000D+00
   279  2.7800000000000D+00  0.0000000000000D+00  0.0000000000000D+00
   280  2.7900000000000D+00  0.0000000000000D+00  0.0000000000000D+00
   281  2.8000000000000D+00  0.0000000000000D+00  0.0000000000000D+00
   282  2.8100000000000D+00  0.0000000000000D+00  0.0000000000000D+00
   283  2.8200000000000D+00  0.0000000000000D+00  0.0000000000000D+00
   284  2.8300000000000D+00  0.0000000000000D+00  0.0000000000000D+00
   285  2.8400000000000D+00  0.0000000000000D+00  0.0000000000000D+00
   286  2.8500000000000D+00  0.0000000000000D+00  0.0000000000000D+00
   287  2.8600000000000D+00  0.0000000000000D+00  0.0000000000000D+00
   288  2.8700000000000D+00  0.0000000000000D+00  0.0000000000000D+00
   289  2.8800000000000D+00  0.0000000000000D+00  0.0000000000000D+00
   290  2.8900000000000D+00  0.0000000000000D+00  0.0000000000000D+00
   291  2.9000000000000D+00  0.0000000000000D+00  0.0000000000000D+00
   292  2.9100000000000D+00  0.0000000000000D+00  0.0000000000000D+00
   293  2.9200000000000D+00  0.0000000000000D+00  0.0000000000000D+00
   294  2.9300000000000D+00  0.0000000000000D+00  0.0000000000000D+00
   295  2.9400000000000D+00  0.0000000000000D+00  0.0000000000000D+00
   296  2.9500000000000D+00  0.0000000000000D+00  0.0000000000000D+00
   297  2.9600000000000D+00  0.0000000000000D+00  0.0000000000000D+00
   298  2.9700000000000D+00  0.0000000000000D+00  0.0000000000000D+00
   299  2.9800000000000D+00  0.0000000000000D+00  0.0000000000000D+00
   300  2.9900000000000D+00  0.0000000000000D+00  0.0000000000000D+00
   301  3.0000000000000D+00  0.0000000000000D+00  0.0000000000000D+00
   302  3.0100000000000D+00  0.0000000000000D+00  0.0000000000000D+00
   303  3.0200000000000D+00  0.0000000000000D+00  0.0000000000000D+00
   304  3.0300000000000D+00  0.0000000000000D+00  0.0000000000000D+00
   305  3.0400000000000D+00  0.0000000000000D+00  0.0000000000000D+00
   306  3.0500000000000D+00  0.0000000000000D+00  0.0000000000000D+00
   307  3.0600000000000D+00  0.0000000000000D+00  0.0000000000000D+00
   308  3.0700000000000D+00  0.0000000000000D+00  0.0000000000000D+00
   309  3.0800000000000D+00  0.0000000000000D+00  0.0000000000000D+00
   310  3.0900000000000D+00  0.0000000000000D+00  0.0000000000000D+00
   311  3.1000000000000D+00  0.0000000000000D+00  0.0000000000000D+00
   312  3.1100000000000D+00  0.0000000000000D+00  0.0000000000000D+00
   313  3.1200000000000D+00  0.0000000000000D+00  0.0000000000000D+00
   314  3.1300000000000D+00  0.0000000000000D+00  0.0000000000000D+00
   315  3.1400000000000D+00  0.0000000000000D+00  0.0000000000000D+00
   316  3.1500000000000D+00  0.0000000000000D+00  0.0000000000000D+00
   317  3.1600000000000D+00  0.0000000000000D+00  0.0000000000000D+00
   318  3.1700000000000D+00  0.0000000000000D+00  0.0000000000000D+00
   319  3.1800000000000D+00  0.0000000000000D+00  0.0000000000000D+00
   320  3.1900000000000D+00  0.0000000000000D+00  0.0000000000000D+00
   321  3.2000000000000D+00  0.0000000000000D+00  0.0000000000000D+00
   322  3.2100000000000D+00  0.0000000000000D+00  0.0000000000000D+00
   323  3.2200000000000D+00  0.0000000000000D+00  0.0000000000000D+00
   324  3.2300000000000D+00  0.0000000000000D+00  0.0000000000000D+00
   325  3.2400000000000D+00  0.0000000000000D+00  0.0000000000000D+00
   326  3.2500000000000D+00  0.0000000000000D+00  0.0000000000000D+00
   327  3.2600000000000D+00  0.0000000000000D+00  0.0000000000000D+00
   328  3.2700000000000D+00  0.0000000000000D+00  0.0000000000000D+00
   329  3.2800000000000D+00  0.0000000000000D+00  0.0000000000000D+00
   330  3.2900000000000D+00  0.0000000000000D+00  0.0000000000000D+00
   331  3.3000000000000D+00  0.0000000000000D+00  0.0000000000000D+00
   332  3.3100000000000D+00  0.0000000000000D+00  0.0000000000000D+00
   333  3.3200000000000D+00  0.0000000000000D+00  0.0000000000000D+00
   334  3.3300000000000D+00  0.0000000000000D+00  0.0000000000000D+00
   335  3.3400000000000D+00  0.0000000000000D+00  0.0000000000000D+00
   336  3.3500000000000D+00  0.0000000000000D+00  0.0000000000000D+00
   337  3.3600000000000D+00  0.0000000000000D+00  0.0000000000000D+00
   338  3.3700000000000D+00  0.0000000000000D+00  0.0000000000000D+00
   339  3.3800000000000D+00  0.0000000000000D+00  0.0000000000000D+00
   340  3.3900000000000D+00  0.0000000000000D+00  0.0000000000000D+00
   341  3.4000000000000D+00  0.0000000000000D+00  0.0000000000000D+00
   342  3.4100000000000D+00  0.0000000000000D+00  0.0000000000000D+00
   343  3.4200000000000D+00  0.0000000000000D+00  0.0000000000000D+00
   344  3.4300000000000D+00  0.0000000000000D+00  0.0000000000000D+00
   345  3.4400000000000D+00  0.0000000000000D+00  0.0000000000000D+00
   346  3.4500000000000D+00  0.0000000000000D+00  0.0000000000000D+00
   347  3.4600000000000D+00  0.0000000000000D+00  0.0000000000000D+00
   348  3.4700000000000D+00  0.0000000000000D+00  0.0000000000000D+00
   349  3.4800000000000D+00  0.0000000000000D+00  0.0000000000000D+00
   350  3.4900000000000D+00  0.0000000000000D+00  0.0000000000000D+00
   351  3.5000000000000D+00  0.0000000000000D+00  0.0000000000000D+00
   352  3.5100000000000D+00  0.0000000000000D+00  0.0000000000000D+00
   353  3.5200000000000D+00  0.0000000000000D+00  0.0000000000000D+00
   354  3.5300000000000D+00  0.0000000000000D+00  0.0000000000000D+00
   355  3.5400000000000D+00  0.0000000000000D+00  0.0000000000000D+00
   356  3.5500000000000D+00  0.0000000000000D+00  0.0000000000000D+00
   357  3.5600000000000D+00  0.0000000000000D+00  0.0000000000000D+00
   358  3.5700000000000D+00  0.0000000000000D+00  0.0000000000000D+00
   359  3.5800000000000D+00  0.0000000000000D+00  0.0000000000000D+00
   360  3.5900000000000D+00  0.0000000000000D+00  0.0000000000000D+00
   361  3.6000000000000D+00  0.0000000000000D+00  0.0000000000000D+00
   362  3.6100000000000D+00  0.0000000000000D+00  0.0000000000000D+00
   363  3.6200000000000D+00  0.0000000000000D+00  0.0000000000000D+00
   364  3.6300000000000D+00  0.0000000000000D+00  0.0000000000000D+00
   365  3.6400000000000D+00  0.0000000000000D+00  0.0000000000000D+00
   366  3.6500000000000D+00  0.0000000000000D+00  0.0000000000000D+00
   367  3.6600000000000D+00  0.0000000000000D+00  0.0000000000000D+00
   368  3.6700000000000D+00  0.0000000000000D+00  0.0000000000000D+00
   369  3.6800000000000D+00  0.0000000000000D+00  0.0000000000000D+00
   370  3.6900000000000D+00  0.0000000000000D+00  0.0000000000000D+00
   371  3.7000000000000D+00  0.0000000000000D+00  0.0000000000000D+00
   372  3.7100000000000D+00  0.0000000000000D+00  0.0000000000000D+00
   373  3.7200000000000D+00  0.0000000000000D+00  0.0000000000000D+00
   374  3.7300000000000D+00  0.0000000000000D+00  0.0000000000000D+00
   375  3.7400000000000D+00  0.0000000000000D+00  0.0000000000000D+00
   376  3.7500000000000D+00  0.0000000000000D+00  0.0000000000000D+00
   377  3.7600000000000D+00  0.0000000000000D+00  0.0000000000000D+00
   378  3.7700000000000D+00  0.0000000000000D+00  0.0000000000000D+00
   379  3.7800000000000D+00  0.0000000000000D+00  0.0000000000000D+00
   380  3.7900000000000D+00  0.0000000000000D+00  0.0000000000000D+00
   381  3.8000000000000D+00  0.0000000000000D+00  0.0000000000000D+00
   382  3.8100000000000D+00  0.0000000000000D+00  0.0000000000000D+00
   383  3.8200000000000D+00  0.0000000000000D+00  0.0000000000000D+00
   384  3.8300000000000D+00  0.0000000000000D+00  0.0000000000000D+00
   385  3.8400000000000D+00  0.0000000000000D+00  0.0000000000000D+00
   386  3.8500000000000D+00  0.0000000000000D+00  0.0000000000000D+00
   387  3.8600000000000D+00  0.0000000000000D+00  0.0000000000000D+00
   388  3.8700000000000D+00  0.0000000000000D+00  0.0000000000000D+00
   389  3.8800000000000D+00  0.0000000000000D+00  0.0000000000000D+00
   390  3.8900000000000D+00  0.0000000000000D+00  0.0000000000000D+00
   391  3.9000000000000D+00  0.0000000000000D+00  0.0000000000000D+00
   392  3.9100000000000D+00  0.0000000000000D+00  0.0000000000000D+00
   393  3.9200000000000D+00  0.0000000000000D+00  0.0000000000000D+00
   394  3.9300000000000D+00  0.0000000000000D+00  0.0000000000000D+00
   395  3.9400000000000D+00  0.0000000000000D+00  0.0000000000000D+00
   396  3.9500000000000D+00  0.0000000000000D+00  0.0000000000000D+00
   397  3.9600000000000D+00  0.0000000000000D+00  0.0000000000000D+00
   398  3.9700000000000D+00  0.0000000000000D+00  0.0000000000000D+00
   399  3.9800000000000D+00  0.0000000000000D+00  0.0000000000000D+00
   400  3.9900000000000D+00  0.0000000000000D+00  0.0000000000000D+00
   401  4.0000000000000D+00  0.0000000000000D+00  0.0000000000000D+00
   402  4.0100000000000D+00  0.0000000000000D+00  0.0000000000000D+00
   403  4.0200000000000D+00  0.0000000000000D+00  0.0000000000000D+00
   404  4.0300000000000D+00  0.0000000000000D+00  0.0000000000000D+00
   405  4.0400000000000D+00  0.0000000000000D+00  0.0000000000000D+00
   406  4.0500000000000D+00  0.0000000000000D+00  0.0000000000000D+00
   407  4.0600000000000D+00  0.0000000000000D+00  0.0000000000000D+00
   408  4.0700000000000D+00  0.0000000000000D+00  0.0000000000000D+00
   409  4.0800000000000D+00  0.0000000000000D+00  0.0000000000000D+00
   410  4.0900000000000D+00  0.0000000000000D+00  0.0000000000000D+00
   411  4.1000000000000D+00  0.0000000000000D+00  0.0000000000000D+00
   412  4.1100000000000D+00  0.0000000000000D+00  0.0000000000000D+00
   413  4.1200000000000D+00  0.0000000000000D+00  0.0000000000000D+00
   414  4.1300000000000D+00  0.0000000000000D+00  0.0000000000000D+00
   415  4.1400000000000D+00  0.0000000000000D+00  0.0000000000000D+00
   416  4.1500000000000D+00  0.0000000000000D+00  0.0000000000000D+00
   417  4.1600000000000D+00  0.0000000000000D+00  0.0000000000000D+00
   418  4.1700000000000D+00  0.0000000000000D+00  0.0000000000000D+00
   419  4.1800000000000D+00  0.0000000000000D+00  0.0000000000000D+00
   420  4.1900000000000D+00  0.0000000000000D+00  0.0000000000000D+00
   421  4.2000000000000D+00  0.0000000000000D+00  0.0000000000000D+00
   422  4.2100000000000D+00  0.0000000000000D+00  0.0000000000000D+00