Cd    ONCVPSP-3.3.1  r_core=   2.33990   2.70000   3.04207
     48.0000     20.0000      210904    zatom,zion,pspd
     8      11   2     4   600     0    pspcod,pspxc,lmax,lloc,mmax,r2well
  5.99000000  0.00000000  0.00000000    rchrg fchrg qchrg
     2     3     3     0    nproj
     3     1           extension_switch
     4     4     0    nprojso
   0                        -6.9079472809543D-01  1.9662297077030D+00
     1  0.0000000000000D+00  5.5910276408611D-12 -1.8679502389318D-12
     2  1.0000000000000D-02  1.5240909323801D-02  5.6491098461095D-02
     3  2.0000000000000D-02  3.0496146331177D-02  1.1287693580989D-01
     4  3.0000000000000D-02  4.5779955814831D-02  1.6905245890606D-01
     5  4.0000000000000D-02  6.1106417127596D-02  2.2491303016487D-01
     6  5.0000000000000D-02  7.6489362315788D-02  2.8035463436449D-01
     7  6.0000000000000D-02  9.1942295272536D-02  3.3527408429015D-01
     8  7.0000000000000D-02  1.0747831224454D-01  3.8956922482945D-01
     9  8.0000000000000D-02  1.2311002402006D-01  4.4313913513523D-01
    10  9.0000000000000D-02  1.3884948011906D-01  4.9588432847472D-01
    11  1.0000000000000D-01  1.5470809529810D-01  5.4770694938632D-01
    12  1.1000000000000D-01  1.7069657867297D-01  5.9851096776911D-01
    13  1.2000000000000D-01  1.8682486575142D-01  6.4820236953350D-01
    14  1.3000000000000D-01  2.0310205365607D-01  6.9668934344618D-01
    15  1.4000000000000D-01  2.1953633980462D-01  7.4388246380695D-01
    16  1.5000000000000D-01  2.3613496430003D-01  7.8969486860084D-01
    17  1.6000000000000D-01  2.5290415626825D-01  8.3404243277420D-01
    18  1.7000000000000D-01  2.6984908436450D-01  8.7684393629022D-01
    19  1.8000000000000D-01  2.8697381165213D-01  9.1802122662620D-01
    20  1.9000000000000D-01  3.0428125504000D-01  9.5749937538218D-01
    21  2.0000000000000D-01  3.2177314944548D-01  9.9520682867874D-01
    22  2.1000000000000D-01  3.3945001683069D-01  1.0310755510303D+00
    23  2.2000000000000D-01  3.5731114023962D-01  1.0650411623891D+00
    24  2.3000000000000D-01  3.7535454294316D-01  1.0970430680659D+00
    25  2.4000000000000D-01  3.9357697277792D-01  1.1270245812417D+00
    26  2.5000000000000D-01  4.1197389174358D-01  1.1549330377981D+00
    27  2.6000000000000D-01  4.3053947090181D-01  1.1807199032034D+00
    28  2.7000000000000D-01  4.4926659059804D-01  1.2043408712054D+00
    29  2.8000000000000D-01  4.6814684600552D-01  1.2257559540932D+00
    30  2.9000000000000D-01  4.8717055796945D-01  1.2449295643041D+00
    31  3.0000000000000D-01  5.0632678910713D-01  1.2618305871669D+00
    32  3.1000000000000D-01  5.2560336509867D-01  1.2764324445853D+00
    33  3.2000000000000D-01  5.4498690108184D-01  1.2887131494825D+00
    34  3.3000000000000D-01  5.6446283304337D-01  1.2986553508424D+00
    35  3.4000000000000D-01  5.8401545407948D-01  1.3062463692003D+00
    36  3.5000000000000D-01  6.0362795537788D-01  1.3114782224530D+00
    37  3.6000000000000D-01  6.2328247175513D-01  1.3143476418751D+00
    38  3.7000000000000D-01  6.4296013156440D-01  1.3148560782478D+00
    39  3.8000000000000D-01  6.6264111077138D-01  1.3130096980242D+00
    40  3.9000000000000D-01  6.8230469097955D-01  1.3088193694762D+00
    41  4.0000000000000D-01  7.0192932116986D-01  1.3023006387857D+00
    42  4.1000000000000D-01  7.2149268290591D-01  1.2934736960662D+00
    43  4.2000000000000D-01  7.4097175874137D-01  1.2823633313190D+00
    44  4.3000000000000D-01  7.6034290355454D-01  1.2689988803531D+00
    45  4.4000000000000D-01  7.7958191852328D-01  1.2534141607151D+00
    46  4.5000000000000D-01  7.9866412744374D-01  1.2356473977038D+00
    47  4.6000000000000D-01  8.1756445508746D-01  1.2157411405615D+00
    48  4.7000000000000D-01  8.3625750728397D-01  1.1937421689589D+00
    49  4.8000000000000D-01  8.5471765241011D-01  1.1697013899163D+00
    50  4.9000000000000D-01  8.7291910396218D-01  1.1436737253227D+00
    51  5.0000000000000D-01  8.9083600388424D-01  1.1157179902418D+00
    52  5.1000000000000D-01  9.0844250632334D-01  1.0858967622159D+00
    53  5.2000000000000D-01  9.2571286148244D-01  1.0542762418032D+00
    54  5.3000000000000D-01  9.4262149924244D-01  1.0209261046068D+00
    55  5.4000000000000D-01  9.5914311222676D-01  9.8591934507965D-01
    56  5.5000000000000D-01  9.7525273798616D-01  9.4933211241051D-01
    57  5.6000000000000D-01  9.9092583998584D-01  9.1124353882097D-01
    58  5.7000000000000D-01  1.0061383870837D+00  8.7173556062657D-01
    59  5.8000000000000D-01  1.0208669311960D+00  8.3089273243705D-01
    60  5.9000000000000D-01  1.0350886828556D+00  7.8880203489315D-01
    61  6.0000000000000D-01  1.0487815843789D+00  7.4555267635922D-01
    62  6.1000000000000D-01  1.0619243803667D+00  7.0123588901147D-01
    63  6.2000000000000D-01  1.0744966852796D+00  6.5594471978211D-01
    64  6.3000000000000D-01  1.0864790478407D+00  6.0977381663890D-01
    65  6.4000000000000D-01  1.0978530120308D+00  5.6281921069816D-01
    66  6.5000000000000D-01  1.1086011744614D+00  5.1517809468668D-01
    67  6.6000000000000D-01  1.1187072379227D+00  4.6694859828439D-01
    68  6.7000000000000D-01  1.1281560609226D+00  4.1822956089467D-01
    69  6.8000000000000D-01  1.1369337030512D+00  3.6912030240331D-01
    70  6.9000000000000D-01  1.1450274660227D+00  3.1972039249952D-01
    71  7.0000000000000D-01  1.1524259302652D+00  2.7012941914335D-01
    72  7.1000000000000D-01  1.1591189869490D+00  2.2044675677386D-01
    73  7.2000000000000D-01  1.1650978653643D+00  1.7077133485977D-01
    74  7.3000000000000D-01  1.1703551555773D+00  1.2120140740121D-01
    75  7.4000000000000D-01  1.1748848263146D+00  7.1834323995177D-02
    76  7.5000000000000D-01  1.1786822380483D+00  2.2766303080432D-02
    77  7.6000000000000D-01  1.1817441512700D+00 -2.5907792021838D-02
    78  7.7000000000000D-01  1.1840687299655D+00 -7.4094673656226D-02
    79  7.8000000000000D-01  1.1856555403212D+00 -1.2170284635789D-01
    80  7.9000000000000D-01  1.1865055447110D+00 -1.6864281874672D-01
    81  8.0000000000000D-01  1.1866210910342D+00 -2.1482731019088D-01
    82  8.1000000000000D-01  1.1860058974923D+00 -2.6017145164873D-01
    83  8.2000000000000D-01  1.1846650329097D+00 -3.0459298010961D-01
    84  8.3000000000000D-01  1.1826048927241D+00 -3.4801242606735D-01
    85  8.4000000000000D-01  1.1798331707857D+00 -3.9035329347562D-01
    86  8.5000000000000D-01  1.1763588271219D+00 -4.3154223165225D-01
    87  8.6000000000000D-01  1.1721920518410D+00 -4.7150919861879D-01
    88  8.7000000000000D-01  1.1673442253589D+00 -5.1018761538374D-01
    89  8.8000000000000D-01  1.1618278751496D+00 -5.4751451070121D-01
    90  8.9000000000000D-01  1.1556566292311D+00 -5.8343065586269D-01
    91  9.0000000000000D-01  1.1488451666095D+00 -6.1788068910696D-01
    92  9.1000000000000D-01  1.1414091649142D+00 -6.5081322926260D-01
    93  9.2000000000000D-01  1.1333652454667D+00 -6.8218097826871D-01
    94  9.3000000000000D-01  1.1247309160314D+00 -7.1194081225217D-01
    95  9.4000000000000D-01  1.1155245115064D+00 -7.4005386087401D-01
    96  9.5000000000000D-01  1.1057651328143D+00 -7.6648557469342D-01
    97  9.6000000000000D-01  1.0954725842585D+00 -7.9120578033480D-01
    98  9.7000000000000D-01  1.0846673096138D+00 -8.1418872328170D-01
    99  9.8000000000000D-01  1.0733703272212D+00 -8.3541309816072D-01
   100  9.9000000000000D-01  1.0616031643551D+00 -8.5486206641876D-01
   101  1.0000000000000D+00  1.0493877911340D+00 -8.7252326133855D-01
   102  1.0100000000000D+00  1.0367465542398D+00 -8.8838878037772D-01
   103  1.0200000000000D+00  1.0237021107099D+00 -9.0245516486026D-01
   104  1.0300000000000D+00  1.0102773620602D+00 -9.1472336709085D-01
   105  1.0400000000000D+00  9.9649538899233D-01 -9.2519870500512D-01
   106  1.0500000000000D+00  9.8237938693149D-01 -9.3389080451109D-01
   107  1.0600000000000D+00  9.6795260263296D-01 -9.4081352972097D-01
   108  1.0700000000000D+00  9.5323827208726D-01 -9.4598490130980D-01
   109  1.0800000000000D+00  9.3825955994366D-01 -9.4942700328413D-01
   110  1.0900000000000D+00  9.2303950066157D-01 -9.5116587848025D-01
   111  1.1000000000000D+00  9.0760094158756D-01 -9.5123141315245D-01
   112  1.1100000000000D+00  8.9196648814363D-01 -9.4965721105064D-01
   113  1.1200000000000D+00  8.7615845130079D-01 -9.4648045741896D-01
   114  1.1300000000000D+00  8.6019879749675D-01 -9.4174177338938D-01
   115  1.1400000000000D+00  8.4410910114400D-01 -9.3548506127219D-01
   116  1.1500000000000D+00  8.2791049985883D-01 -9.2775734128109D-01
   117  1.1600000000000D+00  8.1162365253088D-01 -9.1860858025332D-01
   118  1.1700000000000D+00  7.9526870033287D-01 -9.0809151296240D-01
   119  1.1800000000000D+00  7.7886523075809D-01 -8.9626145663988D-01
   120  1.1900000000000D+00  7.6243224475760D-01 -8.8317611934617D-01
   121  1.2000000000000D+00  7.4598812703538D-01 -8.6889540285013D-01
   122  1.2100000000000D+00  7.2955061954099D-01 -8.5348120069831D-01
   123  1.2200000000000D+00  7.1313679818504D-01 -8.3699719216619D-01
   124  1.2300000000000D+00  6.9676305279445D-01 -8.1950863279334D-01
   125  1.2400000000000D+00  6.8044507030024D-01 -8.0108214222036D-01
   126  1.2500000000000D+00  6.6419782114062D-01 -7.8178549004470D-01
   127  1.2600000000000D+00  6.4803554885316D-01 -7.6168738041788D-01
   128  1.2700000000000D+00  6.3197176280977D-01 -7.4085723610864D-01
   129  1.2800000000000D+00  6.1601923403564D-01 -7.1936498274725D-01
   130  1.2900000000000D+00  6.0018999404926D-01 -6.9728083396659D-01
   131  1.3000000000000D+00  5.8449533664110D-01 -6.7467507814531D-01
   132  1.3100000000000D+00  5.6894582249747D-01 -6.5161786743432D-01
   133  1.3200000000000D+00  5.5355128657624D-01 -6.2817900975422D-01
   134  1.3300000000000D+00  5.3832084812048D-01 -6.0442776441774D-01
   135  1.3400000000000D+00  5.2326292319062D-01 -5.8043264199552D-01
   136  1.3500000000000D+00  5.0838523959796D-01 -5.5626120907148D-01
   137  1.3600000000000D+00  4.9369485409975D-01 -5.3197989844240D-01
   138  1.3700000000000D+00  4.7919817172296D-01 -5.0765382532154D-01
   139  1.3800000000000D+00  4.6490096707618D-01 -4.8334661010210D-01
   140  1.3900000000000D+00  4.5080840749977D-01 -4.5912020811860D-01
   141  1.4000000000000D+00  4.3692507791074D-01 -4.3503474691156D-01
   142  1.4100000000000D+00  4.2325500718791D-01 -4.1114837139504D-01
   143  1.4200000000000D+00  4.0980169594896D-01 -3.8751709727207D-01
   144  1.4300000000000D+00  3.9656814556480D-01 -3.6419467311963D-01
   145  1.4400000000000D+00  3.8355688826301D-01 -3.4123245133141D-01
   146  1.4500000000000D+00  3.7077001816848D-01 -3.1867926826529D-01
   147  1.4600000000000D+00  3.5820922313365D-01 -2.9658133375650D-01
   148  1.4700000000000D+00  3.4587581721883D-01 -2.7498213014088D-01
   149  1.4800000000000D+00  3.3377077367048D-01 -2.5392232100067D-01
   150  1.4900000000000D+00  3.2189475827958D-01 -2.3343966955068D-01
   151  1.5000000000000D+00  3.1024816296565D-01 -2.1356896688468D-01
   152  1.5100000000000D+00  2.9883113948371D-01 -1.9434196988279D-01
   153  1.5200000000000D+00  2.8764363311751D-01 -1.7578734885625D-01
   154  1.5300000000000D+00  2.7668541625351D-01 -1.5793064475679D-01
   155  1.5400000000000D+00  2.6595612173421D-01 -1.4079423580068D-01
   156  1.5500000000000D+00  2.5545527587438D-01 -1.2439731339507D-01
   157  1.5600000000000D+00  2.4518233108130D-01 -1.0875586699639D-01
   158  1.5700000000000D+00  2.3513669794984D-01 -9.3882677836667D-02
   159  1.5800000000000D+00  2.2531777681620D-01 -7.9787320967802D-02
   160  1.5900000000000D+00  2.1572498863620D-01 -6.6476175557857D-02
   161  1.6000000000000D+00  2.0635780519890D-01 -5.3952442803205D-02
   162  1.6100000000000D+00  1.9721577855991D-01 -4.2216171295450D-02
   163  1.6200000000000D+00  1.8829856971055D-01 -3.1264289215090D-02
   164  1.6300000000000D+00  1.7960597639805D-01 -2.1090643063770D-02
   165  1.6400000000000D+00  1.7113796097323D-01 -1.1686040741812D-02
   166  1.6500000000000D+00  1.6289467350228D-01 -3.0383072759862D-03
   167  1.6600000000000D+00  1.5487648484690D-01  4.8676752065981D-03
   168  1.6700000000000D+00  1.4708399385242D-01  1.2049873662088D-02
   169  1.6800000000000D+00  1.3951803600315D-01  1.8529015530675D-02
   170  1.6900000000000D+00  1.3217982687914D-01  2.4328746469827D-02
   171  1.7000000000000D+00  1.2507088037038D-01  2.9475363837167D-02
   172  1.7100000000000D+00  1.1819266212305D-01  3.3997079226770D-02
   173  1.7200000000000D+00  1.1154636574397D-01  3.7923457582458D-02
   174  1.7300000000000D+00  1.0513263461024D-01  4.1284692963757D-02
   175  1.7400000000000D+00  9.8951404127606D-02  4.4111117807190D-02
   176  1.7500000000000D+00  9.3002069338096D-02  4.6433298444589D-02
   177  1.7600000000000D+00  8.7283550596535D-02  4.8281944855055D-02
   178  1.7700000000000D+00  8.1794277034682D-02  4.9687698597301D-02
   179  1.7800000000000D+00  7.6532242360713D-02  5.0681049575025D-02
   180  1.7900000000000D+00  7.1495028634417D-02  5.1292206851231D-02
   181  1.8000000000000D+00  6.6679837598024D-02  5.1550991344355D-02
   182  1.8100000000000D+00  6.2083518615058D-02  5.1486731733712D-02
   183  1.8200000000000D+00  5.7702595033946D-02  5.1128166255711D-02
   184  1.8300000000000D+00  5.3533289163893D-02  5.0503351348187D-02
   185  1.8400000000000D+00  4.9571545888305D-02  4.9639576535034D-02
   186  1.8500000000000D+00  4.5813055124534D-02  4.8563286493800D-02
   187  1.8600000000000D+00  4.2253273138516D-02  4.7300009736133D-02
   188  1.8700000000000D+00  3.8887442902802D-02  4.5874294564283D-02
   189  1.8800000000000D+00  3.5710613530974D-02  4.4309651990086D-02
   190  1.8900000000000D+00  3.2717658910874D-02  4.2628505810236D-02
   191  1.9000000000000D+00  2.9903295639189D-02  4.0852149950278D-02
   192  1.9100000000000D+00  2.7262100265086D-02  3.9000712651964D-02
   193  1.9200000000000D+00  2.4788526054726D-02  3.7093128145305D-02
   194  1.9300000000000D+00  2.2476919146659D-02  3.5147114757704D-02
   195  1.9400000000000D+00  2.0321534399169D-02  3.3179160447023D-02
   196  1.9500000000000D+00  1.8316550750242D-02  3.1204514565534D-02
   197  1.9600000000000D+00  1.6456086323684D-02  2.9237186466046D-02
   198  1.9700000000000D+00  1.4734213223216D-02  2.7289950337561D-02
   199  1.9800000000000D+00  1.3144972051117D-02  2.5374356034866D-02
   200  1.9900000000000D+00  1.1682386291134D-02  2.3500746069088D-02
   201  2.0000000000000D+00  1.0340476363025D-02  2.1678277696297D-02
   202  2.0100000000000D+00  9.1132736518366D-03  1.9914950796802D-02
   203  2.0200000000000D+00  7.9948342427099D-03  1.8217640291001D-02
   204  2.0300000000000D+00  6.9792525651020D-03  1.6592133379336D-02
   205  2.0400000000000D+00  6.0606748716139D-03  1.5043171029460D-02
   206  2.0500000000000D+00  5.2333124919957D-03  1.3574493188970D-02
   207  2.0600000000000D+00  4.4914550107548D-03  1.2188887737560D-02
   208  2.0700000000000D+00  3.8294831425812D-03  1.0888242311445D-02
   209  2.0800000000000D+00  3.2418814830534D-03  9.6735989707743D-03
   210  2.0900000000000D+00  2.7232509869248D-03  8.5452111052939D-03
   211  2.1000000000000D+00  2.2683211701796D-03  7.5026021904274D-03
   212  2.1100000000000D+00  1.8719620745772D-03  6.5446259987523D-03
   213  2.1200000000000D+00  1.5291958462451D-03  5.6695279033187D-03
   214  2.1300000000000D+00  1.2352080054052D-03  4.8750066668539D-03
   215  2.1400000000000D+00  9.8535830260971D-04  4.1582765233324D-03
   216  2.1500000000000D+00  7.7519113923545D-04  3.5161290900486D-03
   217  2.1600000000000D+00  6.0044552811475D-04  2.9449944210705D-03
   218  2.1700000000000D+00  4.5706454766349D-04  2.4410014730594D-03
   219  2.1800000000000D+00  3.4120423415392D-04  2.0000367809236D-03
   220  2.1900000000000D+00  2.4924189448934D-04  1.6178015274980D-03
   221  2.2000000000000D+00  1.7778381995107D-04  1.2898668476901D-03
   222  2.2100000000000D+00  1.2367227955521D-04  1.0117260068048D-03
   223  2.2200000000000D+00  8.3991891027739D-05  7.7884460281414D-04
   224  2.2300000000000D+00  5.6075222200461D-05  5.8670734891894D-04
   225  2.2400000000000D+00  3.7507602980413D-05  4.3086129941372D-04
   226  2.2500000000000D+00  2.6131271949044D-05  3.0695652465290D-04
   227  2.2600000000000D+00  2.0060355344692D-05  2.1077921081572D-04
   228  2.2700000000000D+00  1.7670797477566D-05  1.3828687951791D-04
   229  2.2800000000000D+00  1.7515969455384D-05  8.5655998949359D-05
   230  2.2900000000000D+00  1.8334288164993D-05  4.9264663797142D-05
   231  2.3000000000000D+00  1.9522582207428D-05  2.5729793136760D-05
   232  2.3100000000000D+00  2.0939985000491D-05  1.1923425478388D-05
   233  2.3200000000000D+00  2.2872585487668D-05  5.1159033092775D-06
   234  2.3300000000000D+00  2.3488551338720D-05  2.5366928457907D-06
   235  2.3400000000000D+00  2.1154173522639D-05  1.8952727863178D-06
   236  2.3500000000000D+00  1.3943557609308D-05  1.2733331707151D-06
   237  2.3600000000000D+00  5.5923694579089D-06  5.6841336486817D-07
   238  2.3700000000000D+00 -7.2193408799978D-07 -5.3697658690639D-08
   239  2.3800000000000D+00 -2.2453834377411D-06 -1.6994292627900D-07
   240  2.3900000000000D+00 -1.2149550534806D-06 -9.4276462003181D-08
   241  2.4000000000000D+00  2.3364725528819D-07  1.0977361737820D-08
   242  2.4100000000000D+00  5.0637142441778D-07  2.2649636881503D-08
   243  2.4200000000000D+00  2.4546516533746D-07  1.0524551756384D-08
   244  2.4300000000000D+00 -3.3655945238492D-08 -3.0176630343093D-09
   245  2.4400000000000D+00 -5.9681784106399D-08 -5.3511946386675D-09
   246  2.4500000000000D+00 -2.5144369036345D-08 -2.2544971601400D-09
   247  2.4600000000000D+00  0.0000000000000D+00  0.0000000000000D+00
   248  2.4700000000000D+00  0.0000000000000D+00  0.0000000000000D+00
   249  2.4800000000000D+00  0.0000000000000D+00  0.0000000000000D+00
   250  2.4900000000000D+00  0.0000000000000D+00  0.0000000000000D+00
   251  2.5000000000000D+00  0.0000000000000D+00  0.0000000000000D+00
   252  2.5100000000000D+00  0.0000000000000D+00  0.0000000000000D+00
   253  2.5200000000000D+00  0.0000000000000D+00  0.0000000000000D+00
   254  2.5300000000000D+00  0.0000000000000D+00  0.0000000000000D+00
   255  2.5400000000000D+00  0.0000000000000D+00  0.0000000000000D+00
   256  2.5500000000000D+00  0.0000000000000D+00  0.0000000000000D+00
   257  2.5600000000000D+00  0.0000000000000D+00  0.0000000000000D+00
   258  2.5700000000000D+00  0.0000000000000D+00  0.0000000000000D+00
   259  2.5800000000000D+00  0.0000000000000D+00  0.0000000000000D+00
   260  2.5900000000000D+00  0.0000000000000D+00  0.0000000000000D+00
   261  2.6000000000000D+00  0.0000000000000D+00  0.0000000000000D+00
   262  2.6100000000000D+00  0.0000000000000D+00  0.0000000000000D+00
   263  2.6200000000000D+00  0.0000000000000D+00  0.0000000000000D+00
   264  2.6300000000000D+00  0.0000000000000D+00  0.0000000000000D+00
   265  2.6400000000000D+00  0.0000000000000D+00  0.0000000000000D+00
   266  2.6500000000000D+00  0.0000000000000D+00  0.0000000000000D+00
   267  2.6600000000000D+00  0.0000000000000D+00  0.0000000000000D+00
   268  2.6700000000000D+00  0.0000000000000D+00  0.0000000000000D+00
   269  2.6800000000000D+00  0.0000000000000D+00  0.0000000000000D+00
   270  2.6900000000000D+00  0.0000000000000D+00  0.0000000000000D+00
   271  2.7000000000000D+00  0.0000000000000D+00  0.0000000000000D+00
   272  2.7100000000000D+00  0.0000000000000D+00  0.0000000000000D+00
   273  2.7200000000000D+00  0.0000000000000D+00  0.0000000000000D+00
   274  2.7300000000000D+00  0.0000000000000D+00  0.0000000000000D+00
   275  2.7400000000000D+00  0.0000000000000D+00  0.0000000000000D+00
   276  2.7500000000000D+00  0.0000000000000D+00  0.0000000000000D+00
   277  2.7600000000000D+00  0.0000000000000D+00  0.0000000000000D+00
   278  2.7700000000000D+00  0.0000000000000D+00  0.0000000000000D+00
   279  2.7800000000000D+00  0.0000000000000D+00  0.0000000000000D+00
   280  2.7900000000000D+00  0.0000000000000D+00  0.0000000000000D+00
   281  2.8000000000000D+00  0.0000000000000D+00  0.0000000000000D+00
   282  2.8100000000000D+00  0.0000000000000D+00  0.0000000000000D+00
   283  2.8200000000000D+00  0.0000000000000D+00  0.0000000000000D+00
   284  2.8300000000000D+00  0.0000000000000D+00  0.0000000000000D+00
   285  2.8400000000000D+00  0.0000000000000D+00  0.0000000000000D+00
   286  2.8500000000000D+00  0.0000000000000D+00  0.0000000000000D+00
   287  2.8600000000000D+00  0.0000000000000D+00  0.0000000000000D+00
   288  2.8700000000000D+00  0.0000000000000D+00  0.0000000000000D+00
   289  2.8800000000000D+00  0.0000000000000D+00  0.0000000000000D+00
   290  2.8900000000000D+00  0.0000000000000D+00  0.0000000000000D+00
   291  2.9000000000000D+00  0.0000000000000D+00  0.0000000000000D+00
   292  2.9100000000000D+00  0.0000000000000D+00  0.0000000000000D+00
   293  2.9200000000000D+00  0.0000000000000D+00  0.0000000000000D+00
   294  2.9300000000000D+00  0.0000000000000D+00  0.0000000000000D+00
   295  2.9400000000000D+00  0.0000000000000D+00  0.0000000000000D+00
   296  2.9500000000000D+00  0.0000000000000D+00  0.0000000000000D+00
   297  2.9600000000000D+00  0.0000000000000D+00  0.0000000000000D+00
   298  2.9700000000000D+00  0.0000000000000D+00  0.0000000000000D+00
   299  2.9800000000000D+00  0.0000000000000D+00  0.0000000000000D+00
   300  2.9900000000000D+00  0.0000000000000D+00  0.0000000000000D+00
   301  3.0000000000000D+00  0.0000000000000D+00  0.0000000000000D+00
   302  3.0100000000000D+00  0.0000000000000D+00  0.0000000000000D+00
   303  3.0200000000000D+00  0.0000000000000D+00  0.0000000000000D+00
   304  3.0300000000000D+00  0.0000000000000D+00  0.0000000000000D+00
   305  3.0400000000000D+00  0.0000000000000D+00  0.0000000000000D+00
   306  3.0500000000000D+00  0.0000000000000D+00  0.0000000000000D+00
   307  3.0600000000000D+00  0.0000000000000D+00  0.0000000000000D+00
   308  3.0700000000000D+00  0.0000000000000D+00  0.0000000000000D+00
   309  3.0800000000000D+00  0.0000000000000D+00  0.0000000000000D+00
   310  3.0900000000000D+00  0.0000000000000D+00  0.0000000000000D+00
   311  3.1000000000000D+00  0.0000000000000D+00  0.0000000000000D+00
   312  3.1100000000000D+00  0.0000000000000D+00  0.0000000000000D+00
   313  3.1200000000000D+00  0.0000000000000D+00  0.0000000000000D+00
   314  3.1300000000000D+00  0.0000000000000D+00  0.0000000000000D+00
   315  3.1400000000000D+00  0.0000000000000D+00  0.0000000000000D+00
   316  3.1500000000000D+00  0.0000000000000D+00  0.0000000000000D+00
   317  3.1600000000000D+00  0.0000000000000D+00  0.0000000000000D+00
   318  3.1700000000000D+00  0.0000000000000D+00  0.0000000000000D+00
   319  3.1800000000000D+00  0.0000000000000D+00  0.0000000000000D+00
   320  3.1900000000000D+00  0.0000000000000D+00  0.0000000000000D+00
   321  3.2000000000000D+00  0.0000000000000D+00  0.0000000000000D+00
   322  3.2100000000000D+00  0.0000000000000D+00  0.0000000000000D+00
   323  3.2200000000000D+00  0.0000000000000D+00  0.0000000000000D+00
   324  3.2300000000000D+00  0.0000000000000D+00  0.0000000000000D+00
   325  3.2400000000000D+00  0.0000000000000D+00  0.0000000000000D+00
   326  3.2500000000000D+00  0.0000000000000D+00  0.0000000000000D+00
   327  3.2600000000000D+00  0.0000000000000D+00  0.0000000000000D+00
   328  3.2700000000000D+00  0.0000000000000D+00  0.0000000000000D+00
   329  3.2800000000000D+00  0.0000000000000D+00  0.0000000000000D+00
   330  3.2900000000000D+00  0.0000000000000D+00  0.0000000000000D+00
   331  3.3000000000000D+00  0.0000000000000D+00  0.0000000000000D+00
   332  3.3100000000000D+00  0.0000000000000D+00  0.0000000000000D+00
   333  3.3200000000000D+00  0.0000000000000D+00  0.0000000000000D+00
   334  3.3300000000000D+00  0.0000000000000D+00  0.0000000000000D+00
   335  3.3400000000000D+00  0.0000000000000D+00  0.0000000000000D+00
   336  3.3500000000000D+00  0.0000000000000D+00  0.0000000000000D+00
   337  3.3600000000000D+00  0.0000000000000D+00  0.0000000000000D+00
   338  3.3700000000000D+00  0.0000000000000D+00  0.0000000000000D+00
   339  3.3800000000000D+00  0.0000000000000D+00  0.0000000000000D+00
   340  3.3900000000000D+00  0.0000000000000D+00  0.0000000000000D+00
   341  3.4000000000000D+00  0.0000000000000D+00  0.0000000000000D+00
   342  3.4100000000000D+00  0.0000000000000D+00  0.0000000000000D+00
   343  3.4200000000000D+00  0.0000000000000D+00  0.0000000000000D+00
   344  3.4300000000000D+00  0.0000000000000D+00  0.0000000000000D+00
   345  3.4400000000000D+00  0.0000000000000D+00  0.0000000000000D+00
   346  3.4500000000000D+00  0.0000000000000D+00  0.0000000000000D+00
   347  3.4600000000000D+00  0.0000000000000D+00  0.0000000000000D+00
   348  3.4700000000000D+00  0.0000000000000D+00  0.0000000000000D+00
   349  3.4800000000000D+00  0.0000000000000D+00  0.0000000000000D+00
   350  3.4900000000000D+00  0.0000000000000D+00  0.0000000000000D+00
   351  3.5000000000000D+00  0.0000000000000D+00  0.0000000000000D+00
   352  3.5100000000000D+00  0.0000000000000D+00  0.0000000000000D+00
   353  3.5200000000000D+00  0.0000000000000D+00  0.0000000000000D+00
   354  3.5300000000000D+00  0.0000000000000D+00  0.0000000000000D+00
   355  3.5400000000000D+00  0.0000000000000D+00  0.0000000000000D+00
   356  3.5500000000000D+00  0.0000000000000D+00  0.0000000000000D+00
   357  3.5600000000000D+00  0.0000000000000D+00  0.0000000000000D+00
   358  3.5700000000000D+00  0.0000000000000D+00  0.0000000000000D+00
   359  3.5800000000000D+00  0.0000000000000D+00  0.0000000000000D+00
   360  3.5900000000000D+00  0.0000000000000D+00  0.0000000000000D+00
   361  3.6000000000000D+00  0.0000000000000D+00  0.0000000000000D+00
   362  3.6100000000000D+00  0.0000000000000D+00  0.0000000000000D+00
   363  3.6200000000000D+00  0.0000000000000D+00  0.0000000000000D+00
   364  3.6300000000000D+00  0.0000000000000D+00  0.0000000000000D+00
   365  3.6400000000000D+00  0.0000000000000D+00  0.0000000000000D+00
   366  3.6500000000000D+00  0.0000000000000D+00  0.0000000000000D+00
   367  3.6600000000000D+00  0.0000000000000D+00  0.0000000000000D+00
   368  3.6700000000000D+00  0.0000000000000D+00  0.0000000000000D+00
   369  3.6800000000000D+00  0.0000000000000D+00  0.0000000000000D+00
   370  3.6900000000000D+00  0.0000000000000D+00  0.0000000000000D+00
   371  3.7000000000000D+00  0.0000000000000D+00  0.0000000000000D+00
   372  3.7100000000000D+00  0.0000000000000D+00  0.0000000000000D+00
   373  3.7200000000000D+00  0.0000000000000D+00  0.0000000000000D+00
   374  3.7300000000000D+00  0.0000000000000D+00  0.0000000000000D+00
   375  3.7400000000000D+00  0.0000000000000D+00  0.0000000000000D+00
   376  3.7500000000000D+00  0.0000000000000D+00  0.0000000000000D+00
   377  3.7600000000000D+00  0.0000000000000D+00  0.0000000000000D+00
   378  3.7700000000000D+00  0.0000000000000D+00  0.0000000000000D+00
   379  3.7800000000000D+00  0.0000000000000D+00  0.0000000000000D+00
   380  3.7900000000000D+00  0.0000000000000D+00  0.0000000000000D+00
   381  3.8000000000000D+00  0.0000000000000D+00  0.0000000000000D+00
   382  3.8100000000000D+00  0.0000000000000D+00  0.0000000000000D+00
   383  3.8200000000000D+00  0.0000000000000D+00  0.0000000000000D+00
   384  3.8300000000000D+00  0.0000000000000D+00  0.0000000000000D+00
   385  3.8400000000000D+00  0.0000000000000D+00  0.0000000000000D+00
   386  3.8500000000000D+00  0.0000000000000D+00  0.0000000000000D+00
   387  3.8600000000000D+00  0.0000000000000D+00  0.0000000000000D+00
   388  3.8700000000000D+00  0.0000000000000D+00  0.0000000000000D+00
   389  3.8800000000000D+00  0.0000000000000D+00  0.0000000000000D+00
   390  3.8900000000000D+00  0.0000000000000D+00  0.0000000000000D+00
   391  3.9000000000000D+00  0.0000000000000D+00  0.0000000000000D+00
   392  3.9100000000000D+00  0.0000000000000D+00  0.0000000000000D+00
   393  3.9200000000000D+00  0.0000000000000D+00  0.0000000000000D+00
   394  3.9300000000000D+00  0.0000000000000D+00  0.0000000000000D+00
   395  3.9400000000000D+00  0.0000000000000D+00  0.0000000000000D+00
   396  3.9500000000000D+00  0.0000000000000D+00  0.0000000000000D+00
   397  3.9600000000000D+00  0.0000000000000D+00  0.0000000000000D+00
   398  3.9700000000000D+00  0.0000000000000D+00  0.0000000000000D+00
   399  3.9800000000000D+00  0.0000000000000D+00  0.0000000000000D+00
   400  3.9900000000000D+00  0.0000000000000D+00  0.0000000000000D+00
   401  4.0000000000000D+00  0.0000000000000D+00  0.0000000000000D+00
   402  4.0100000000000D+00  0.0000000000000D+00  0.0000000000000D+00
   403  4.0200000000000D+00  0.0000000000000D+00  0.0000000000000D+00
   404  4.0300000000000D+00  0.0000000000000D+00  0.0000000000000D+00
   405  4.0400000000000D+00  0.0000000000000D+00  0.0000000000000D+00
   406  4.0500000000000D+00  0.0000000000000D+00  0.0000000000000D+00
   407  4.0600000000000D+00  0.0000000000000D+00  0.0000000000000D+00
   408  4.0700000000000D+00  0.0000000000000D+00  0.0000000000000D+00
   409  4.0800000000000D+00  0.0000000000000D+00  0.0000000000000D+00
   410  4.0900000000000D+00  0.0000000000000D+00  0.0000000000000D+00
   411  4.1000000000000D+00  0.0000000000000D+00  0.0000000000000D+00
   412  4.1100000000000D+00  0.0000000000000D+00  0.0000000000000D+00
   413  4.1200000000000D+00  0.0000000000000D+00  0.0000000000000D+00
   414  4.1300000000000D+00  0.0000000000000D+00  0.0000000000000D+00
   415  4.1400000000000D+00  0.0000000000000D+00  0.0000000000000D+00
   416  4.1500000000000D+00  0.0000000000000D+00  0.0000000000000D+00
   417  4.1600000000000D+00  0.0000000000000D+00  0.0000000000000D+00
   418  4.1700000000000D+00  0.0000000000000D+00  0.0000000000000D+00
   419  4.1800000000000D+00  0.0000000000000D+00  0.0000000000000D+00
   420  4.1900000000000D+00  0.0000000000000D+00  0.0000000000000D+00
   421  4.2000000000000D+00  0.0000000000000D+00  0.0000000000000D+00
   422  4.2100000000000D+00  0.0000000000000D+00  0.0000000000000D+00