Cl    ONCVPSP-3.3.1  r_core=   3.22968   1.63633
     17.0000      7.0000      210904    zatom,zion,pspd
     8      11   1     4   600     0    pspcod,pspxc,lmax,lloc,mmax,r2well
  5.99000000  0.00000000  0.00000000    rchrg fchrg qchrg
     2     3     0     0    nproj
     3     1           extension_switch
     4     0     0    nprojso
   0                        -3.2358872104615D+00  5.7099940975164D+00
     1  0.0000000000000D+00  4.8388404394473D-11 -5.3229642915653D-12
     2  1.0000000000000D-02 -5.9151425447122D-02  5.3239314931055D-02
     3  2.0000000000000D-02 -1.1803665311756D-01  1.0639512164071D-01
     4  3.0000000000000D-02 -1.7639057431141D-01  1.5938409666597D-01
     5  4.0000000000000D-02 -2.3395025447154D-01  2.1212328559876D-01
     6  5.0000000000000D-02 -2.9045601024008D-01  2.6453028646027D-01
     7  6.0000000000000D-02 -3.4565247453114D-01  3.1652343169501D-01
     8  7.0000000000000D-02 -3.9928964568182D-01  3.6802196833104D-01
     9  8.0000000000000D-02 -4.5112391679183D-01  4.1894623585775D-01
    10  9.0000000000000D-02 -5.0091908142250D-01  4.6921784137926D-01
    11  1.0000000000000D-01 -5.4844731189786D-01  5.1875983160960D-01
    12  1.1000000000000D-01 -5.9349010653393D-01  5.6749686128480D-01
    13  1.2000000000000D-01 -6.3583920221734D-01  6.1535535757746D-01
    14  1.3000000000000D-01 -6.7529744886058D-01  6.6226368011124D-01
    15  1.4000000000000D-01 -7.1167964237768D-01  7.0815227618520D-01
    16  1.5000000000000D-01 -7.4481331295199D-01  7.5295383083216D-01
    17  1.6000000000000D-01 -7.7453946550538D-01  7.9660341135033D-01
    18  1.7000000000000D-01 -8.0071326942561D-01  8.3903860596354D-01
    19  1.8000000000000D-01 -8.2320469476631D-01  8.8019965628273D-01
    20  1.9000000000000D-01 -8.4189909229997D-01  9.2002958325973D-01
    21  2.0000000000000D-01 -8.5669771497996D-01  9.5847430634318D-01
    22  2.1000000000000D-01 -8.6751817855079D-01  9.9548275556698D-01
    23  2.2000000000000D-01 -8.7429485923741D-01  1.0310069763224D+00
    24  2.3000000000000D-01 -8.7697922664287D-01  1.0650022265868D+00
    25  2.4000000000000D-01 -8.7554011018964D-01  1.0974270664036D+00
    26  2.5000000000000D-01 -8.6996389765143D-01  1.1282434394342D+00
    27  2.6000000000000D-01 -8.6025466454048D-01  1.1574167464206D+00
    28  2.7000000000000D-01 -8.4643423333799D-01  1.1849159104300D+00
    29  2.8000000000000D-01 -8.2854216178314D-01  1.2107134337681D+00
    30  2.9000000000000D-01 -8.0663565966779D-01  1.2347854464823D+00
    31  3.0000000000000D-01 -7.8078943381891D-01  1.2571117463938D+00
    32  3.1000000000000D-01 -7.5109546118892D-01  1.2776758306293D+00
    33  3.2000000000000D-01 -7.1766269021368D-01  1.2964649186455D+00
    34  3.3000000000000D-01 -6.8061667083991D-01  1.3134699667673D+00
    35  3.4000000000000D-01 -6.4009911386566D-01  1.3286856742872D+00
    36  3.5000000000000D-01 -5.9626738048011D-01  1.3421104811988D+00
    37  3.6000000000000D-01 -5.4929390313092D-01  1.3537465576640D+00
    38  3.7000000000000D-01 -4.9936553908774D-01  1.3635997853401D+00
    39  3.8000000000000D-01 -4.4668285830969D-01  1.3716797307173D+00
    40  3.9000000000000D-01 -3.9145936746004D-01  1.3779996106445D+00
    41  4.0000000000000D-01 -3.3392067214491D-01  1.3825762502450D+00
    42  4.1000000000000D-01 -2.7430357968069D-01  1.3854300334490D+00
    43  4.2000000000000D-01 -2.1285514491965D-01  1.3865848463934D+00
    44  4.3000000000000D-01 -1.4983166188133D-01  1.3860680139644D+00
    45  4.4000000000000D-01 -8.5497604150089D-02  1.3839102297782D+00
    46  4.5000000000000D-01 -2.0124517204708D-02  1.3801454799207D+00
    47  4.6000000000000D-01  4.6010133955377D-02  1.3748109607855D+00
    48  4.7000000000000D-01  1.1262415833282D-01  1.3679469913710D+00
    49  4.8000000000000D-01  1.7943186986784D-01  1.3595969204171D+00
    50  4.9000000000000D-01  2.4614535187817D-01  1.3498070287784D+00
    51  5.0000000000000D-01  3.1247575093294D-01  1.3386264274511D+00
    52  5.1000000000000D-01  3.7813459593830D-01  1.3261069516825D+00
    53  5.2000000000000D-01  4.4283513807180D-01  1.3123030516114D+00
    54  5.3000000000000D-01  5.0629370707377D-01  1.2972716798973D+00
    55  5.4000000000000D-01  5.6823107928695D-01  1.2810721768106D+00
    56  5.5000000000000D-01  6.2837385273127D-01  1.2637661532660D+00
    57  5.6000000000000D-01  6.8645582440960D-01  1.2454173722910D+00
    58  5.7000000000000D-01  7.4221936496262D-01  1.2260916294278D+00
    59  5.8000000000000D-01  7.9541678572673D-01  1.2058566325762D+00
    60  5.9000000000000D-01  8.4581169319986D-01  1.1847818817855D+00
    61  6.0000000000000D-01  8.9318032588414D-01  1.1629385495117D+00
    62  6.1000000000000D-01  9.3731286845471D-01  1.1403993618526D+00
    63  6.2000000000000D-01  9.7801473819834D-01  1.1172384812776D+00
    64  6.3000000000000D-01  1.0151078386751D+00  1.0935313913650D+00
    65  6.4000000000000D-01  1.0484317755824D+00  1.0693547840566D+00
    66  6.5000000000000D-01  1.0778450298398D+00  1.0447864499354D+00
    67  6.6000000000000D-01  1.1032260829723D+00  1.0199051720231D+00
    68  6.7000000000000D-01  1.1244744899364D+00  9.9479062358947D-01
    69  6.8000000000000D-01  1.1415118946272D+00  9.6952327045167D-01
    70  6.9000000000000D-01  1.1542829834003D+00  9.4418427823326D-01
    71  7.0000000000000D-01  1.1627563720668D+00  9.1885542503714D-01
    72  7.1000000000000D-01  1.1669254219464D+00  8.9361901997312D-01
    73  7.2000000000000D-01  1.1668089807175D+00  8.6855782796419D-01
    74  7.3000000000000D-01  1.1624520439608D+00  8.4375500123722D-01
    75  7.4000000000000D-01  1.1539263334718D+00  8.1929401788521D-01
    76  7.5000000000000D-01  1.1413307886077D+00  7.9525862786677D-01
    77  7.6000000000000D-01  1.1247919671394D+00  7.7173280678684D-01
    78  7.7000000000000D-01  1.1044643522923D+00  7.4880071777885D-01
    79  7.8000000000000D-01  1.0805305628946D+00  7.2654668178409D-01
    80  7.9000000000000D-01  1.0532014640077D+00  7.0505515680691D-01
    81  8.0000000000000D-01  1.0227161738981D+00  6.8441072413113D-01
    82  8.1000000000000D-01  9.8934196332545D-01  6.6469808065193D-01
    83  8.2000000000000D-01  9.5337332417451D-01  6.4600102469276D-01
    84  8.3000000000000D-01  9.1512612679983D-01  6.2839581997431D-01
    85  8.4000000000000D-01  8.7492242758870D-01  6.1193660527230D-01
    86  8.5000000000000D-01  8.3307414568337D-01  5.9664584609887D-01
    87  8.6000000000000D-01  7.8986624930790D-01  5.8250808714823D-01
    88  8.7000000000000D-01  7.4554233897198D-01  5.6946831794634D-01
    89  8.8000000000000D-01  7.0029523495192D-01  5.5743538051744D-01
    90  8.9000000000000D-01  6.5426434888833D-01  5.4628996830321D-01
    91  9.0000000000000D-01  6.0754025874874D-01  5.3589587674348D-01
    92  9.1000000000000D-01  5.6017537769990D-01  5.2611253596856D-01
    93  9.2000000000000D-01  5.1219833024795D-01  5.1680668762645D-01
    94  9.3000000000000D-01  4.6362908018954D-01  5.0786143933323D-01
    95  9.4000000000000D-01  4.1449210385798D-01  4.9918170087343D-01
    96  9.5000000000000D-01  3.6482581119110D-01  4.9069590568853D-01
    97  9.6000000000000D-01  3.1468758479969D-01  4.8235465856521D-01
    98  9.7000000000000D-01  2.6415482825921D-01  4.7412735162608D-01
    99  9.8000000000000D-01  2.1332304273666D-01  4.6599783996184D-01
   100  9.9000000000000D-01  1.6230214617280D-01  4.5796006742469D-01
   101  1.0000000000000D+00  1.1121211185419D-01  4.5001421944320D-01
   102  1.0100000000000D+00  6.0178720855804D-02  4.4216368597325D-01
   103  1.0200000000000D+00  9.3298774021432D-03  4.3441287377858D-01
   104  1.0300000000000D+00 -4.1207318631000D-02  4.2676577953715D-01
   105  1.0400000000000D+00 -9.1308732778574D-02  4.1922516919265D-01
   106  1.0500000000000D+00 -1.4085468356095D-01  4.1179219886829D-01
   107  1.0600000000000D+00 -1.8973088879270D-01  4.0446633333644D-01
   108  1.0700000000000D+00 -2.3782900809536D-01  3.9724544510853D-01
   109  1.0800000000000D+00 -2.8504689821095D-01  3.9012601401743D-01
   110  1.0900000000000D+00 -3.3128867529380D-01  3.8310337010297D-01
   111  1.1000000000000D+00 -3.7646465421098D-01  3.7617194477414D-01
   112  1.1100000000000D+00 -4.2049121458412D-01  3.6932550967964D-01
   113  1.1200000000000D+00 -4.6329062775119D-01  3.6255739260793D-01
   114  1.1300000000000D+00 -5.0479086584181D-01  3.5586066650281D-01
   115  1.1400000000000D+00 -5.4492540770516D-01  3.4922831053562D-01
   116  1.1500000000000D+00 -5.8363305006510D-01  3.4265334466549D-01
   117  1.1600000000000D+00 -6.2085772904252D-01  3.3612894004528D-01
   118  1.1700000000000D+00 -6.5654835421081D-01  3.2964850801787D-01
   119  1.1800000000000D+00 -6.9065865639143D-01  3.2320577037110D-01
   120  1.1900000000000D+00 -7.2314704918265D-01  3.1679481346044D-01
   121  1.2000000000000D+00 -7.5397650313098D-01  3.1041012871866D-01
   122  1.2100000000000D+00 -7.8311443162042D-01  3.0404664153296D-01
   123  1.2200000000000D+00 -8.1053258715704D-01  2.9769973030609D-01
   124  1.2300000000000D+00 -8.3620696569920D-01  2.9136523771104D-01
   125  1.2400000000000D+00 -8.6011771782855D-01  2.8503947526013D-01
   126  1.2500000000000D+00 -8.8224906502048D-01  2.7871922246505D-01
   127  1.2600000000000D+00 -9.0258921904845D-01  2.7240172179454D-01
   128  1.2700000000000D+00 -9.2113030312192D-01  2.6608467021198D-01
   129  1.2800000000000D+00 -9.3786827337177D-01  2.5976620804408D-01
   130  1.2900000000000D+00 -9.5280283933116D-01  2.5344490586272D-01
   131  1.3000000000000D+00 -9.6593738239046D-01  2.4711974984469D-01
   132  1.3100000000000D+00 -9.7727887141019D-01  2.4079012600960D-01
   133  1.3200000000000D+00 -9.8683777465449D-01  2.3445580371886D-01
   134  1.3300000000000D+00 -9.9462796762378D-01  2.2811691864573D-01
   135  1.3400000000000D+00 -1.0006666364488D+00  2.2177395542083D-01
   136  1.3500000000000D+00 -1.0049741764832D+00  2.1542773014426D-01
   137  1.3600000000000D+00 -1.0075740861783D+00  2.0907937282732D-01
   138  1.3700000000000D+00 -1.0084928561725D+00  2.0273030987749D-01
   139  1.3800000000000D+00 -1.0077598537049D+00  1.9638224668323D-01
   140  1.3900000000000D+00 -1.0054072026382D+00  1.9003715032399D-01
   141  1.4000000000000D+00 -1.0014696592610D+00  1.8369723245269D-01
   142  1.4100000000000D+00 -9.9598448425883D-01  1.7736493235416D-01
   143  1.4200000000000D+00 -9.8899131118928D-01  1.7104290019821D-01
   144  1.4300000000000D+00 -9.8053201183480D-01  1.6473398049428D-01
   145  1.4400000000000D+00 -9.7065055887705D-01  1.5844119575096D-01
   146  1.4500000000000D+00 -9.5939288628077D-01  1.5216773034789D-01
   147  1.4600000000000D+00 -9.4680674784314D-01  1.4591691462238D-01
   148  1.4700000000000D+00 -9.3294157431682D-01  1.3969220917874D-01
   149  1.4800000000000D+00 -9.1784832955981D-01  1.3349718942376D-01
   150  1.4900000000000D+00 -9.0157936609499D-01  1.2733553034170D-01
   151  1.5000000000000D+00 -8.8418828053923D-01  1.2121099151238D-01
   152  1.5100000000000D+00 -8.6572976925034D-01  1.1512740238974D-01
   153  1.5200000000000D+00 -8.4625948462035D-01  1.0908864784826D-01
   154  1.5300000000000D+00 -8.2583389236285D-01  1.0309865401486D-01
   155  1.5400000000000D+00 -8.0451013014903D-01  9.7161374399136D-02
   156  1.5500000000000D+00 -7.8234586796205D-01  9.1280776338230D-02
   157  1.5600000000000D+00 -7.5939917043355D-01  8.5460827772301D-02
   158  1.5700000000000D+00 -7.3572836155755D-01  7.9705484367751D-02
   159  1.5800000000000D+00 -7.1139189195184D-01  7.4018677003956D-02
   160  1.5900000000000D+00 -6.8644820908056D-01  6.8404299641739D-02
   161  1.6000000000000D+00 -6.6095563054154D-01  6.2866197587351D-02
   162  1.6100000000000D+00 -6.3497222080145D-01  5.7408156171685D-02
   163  1.6200000000000D+00 -6.0855567146628D-01  5.2033889855703D-02
   164  1.6300000000000D+00 -5.8176318540895D-01  4.6747031781584D-02
   165  1.6400000000000D+00 -5.5465136483791D-01  4.1551123778509D-02
   166  1.6500000000000D+00 -5.2727610356726D-01  3.6449606840494D-02
   167  1.6600000000000D+00 -4.9969248356570D-01  3.1445812083924D-02
   168  1.6700000000000D+00 -4.7195467598960D-01  2.6542952199634D-02
   169  1.6800000000000D+00 -4.4411584676603D-01  2.1744113405044D-02
   170  1.6900000000000D+00 -4.1622806688549D-01  1.7052247908236D-02
   171  1.7000000000000D+00 -3.8834222744913D-01  1.2470166887555D-02
   172  1.7100000000000D+00 -3.6050795959671D-01  8.0005339962352D-03
   173  1.7200000000000D+00 -3.3277355932932D-01  3.6458593920331D-03
   174  1.7300000000000D+00 -3.0518591733336D-01 -5.9150570007249D-04
   175  1.7400000000000D+00 -2.7779045377668D-01 -4.7093738964643D-03
   176  1.7500000000000D+00 -2.5063105817868D-01 -8.7057260267754D-03
   177  1.7600000000000D+00 -2.2375003426975D-01 -1.2578714979552D-02
   178  1.7700000000000D+00 -1.9718804995288D-01 -1.6326669012073D-02
   179  1.7800000000000D+00 -1.7098409221464D-01 -1.9948094542367D-02
   180  1.7900000000000D+00 -1.4517542712434D-01 -2.3441678410848D-02
   181  1.8000000000000D+00 -1.1979756469021D-01 -2.6806289638095D-02
   182  1.8100000000000D+00 -9.4884228746835D-02 -3.0040980661988D-02
   183  1.8200000000000D+00 -7.0467331566514D-02 -3.3144988089251D-02
   184  1.8300000000000D+00 -4.6576953387066D-02 -3.6117732942503D-02
   185  1.8400000000000D+00 -2.3241326524224D-02 -3.8958820442428D-02
   186  1.8500000000000D+00 -4.8682420208756D-04 -4.1668039309381D-02
   187  1.8600000000000D+00  2.1662046167552D-02 -4.4245360608781D-02
   188  1.8700000000000D+00  4.3182645245540D-02 -4.6690936160108D-02
   189  1.8800000000000D+00  6.4054199748612D-02 -4.9005096541014D-02
   190  1.8900000000000D+00  8.4257796252449D-02 -5.1188348658007D-02
   191  1.9000000000000D+00  1.0377637088504D-01 -5.3241372864690D-02
   192  1.9100000000000D+00  1.2259469515686D-01 -5.5165019696733D-02
   193  1.9200000000000D+00  1.4069935797148D-01 -5.6960306368846D-02
   194  1.9300000000000D+00  1.5807874409708D-01 -5.8628412967767D-02
   195  1.9400000000000D+00  1.7472300899785D-01 -6.0170678097113D-02
   196  1.9500000000000D+00  1.9062405039534D-01 -6.1588594235733D-02
   197  1.9600000000000D+00  2.0577547665336D-01 -6.2883802893940D-02
   198  1.9700000000000D+00  2.2017257216321D-01 -6.4058089534654D-02
   199  1.9800000000000D+00  2.3381225988497D-01 -6.5113378213037D-02
   200  1.9900000000000D+00  2.4669306115572D-01 -6.6051725925098D-02
   201  2.0000000000000D+00  2.5881505302191D-01 -6.6875316764991D-02
   202  2.0100000000000D+00  2.7017982320697D-01 -6.7586455907782D-02
   203  2.0200000000000D+00  2.8079042291309D-01 -6.8187563404858D-02
   204  2.0300000000000D+00  2.9065131762108D-01 -6.8681167826316D-02
   205  2.0400000000000D+00  2.9976833605939D-01 -6.9069899767852D-02
   206  2.0500000000000D+00  3.0814861750737D-01 -6.9356485240334D-02
   207  2.0600000000000D+00  3.1580055763642D-01 -6.9543738967355D-02
   208  2.0700000000000D+00  3.2273375299706D-01 -6.9634557598940D-02
   209  2.0800000000000D+00  3.2895894439895D-01 -6.9631912873824D-02
   210  2.0900000000000D+00  3.3448795929142D-01 -6.9538844739062D-02
   211  2.1000000000000D+00  3.3933365330998D-01 -6.9358454445411D-02
   212  2.1100000000000D+00  3.4350985123454D-01 -6.9093897648934D-02
   213  2.1200000000000D+00  3.4703128735849D-01 -6.8748377512791D-02
   214  2.1300000000000D+00  3.4991354561556D-01 -6.8325137853512D-02
   215  2.1400000000000D+00  3.5217299947713D-01 -6.7827456328551D-02
   216  2.1500000000000D+00  3.5382675177850D-01 -6.7258637682488D-02
   217  2.1600000000000D+00  3.5489257476965D-01 -6.6622007087866D-02
   218  2.1700000000000D+00  3.5538885026054D-01 -6.5920903557559D-02
   219  2.1800000000000D+00  3.5533451028280D-01 -6.5158673484438D-02
   220  2.1900000000000D+00  3.5474897824519D-01 -6.4338664298844D-02
   221  2.2000000000000D+00  3.5365211063096D-01 -6.3464218251685D-02
   222  2.2100000000000D+00  3.5206413963737D-01 -6.2538666356975D-02
   223  2.2200000000000D+00  3.5000561649611D-01 -6.1565322465744D-02
   224  2.2300000000000D+00  3.4749735589107D-01 -6.0547477530421D-02
   225  2.2400000000000D+00  3.4456038156639D-01 -5.9488394064325D-02
   226  2.2500000000000D+00  3.4121587294155D-01 -5.8391300779382D-02
   227  2.2600000000000D+00  3.3748511316655D-01 -5.7259387405829D-02
   228  2.2700000000000D+00  3.3338943846559D-01 -5.6095799719262D-02
   229  2.2800000000000D+00  3.2895018880373D-01 -5.4903634753240D-02
   230  2.2900000000000D+00  3.2418866043190D-01 -5.3685936301377D-02
   231  2.3000000000000D+00  3.1912605974241D-01 -5.2445690596668D-02
   232  2.3100000000000D+00  3.1378345887461D-01 -5.1185822229699D-02
   233  2.3200000000000D+00  3.0818175314496D-01 -4.9909190306697D-02
   234  2.3300000000000D+00  3.0234161998557D-01 -4.8618584816236D-02
   235  2.3400000000000D+00  2.9628347995266D-01 -4.7316723269109D-02
   236  2.3500000000000D+00  2.9002745956449D-01 -4.6006247576024D-02
   237  2.3600000000000D+00  2.8359335576447D-01 -4.4689721138231D-02
   238  2.3700000000000D+00  2.7700060267943D-01 -4.3369626225301D-02
   239  2.3800000000000D+00  2.7026824010723D-01 -4.2048361573645D-02
   240  2.3900000000000D+00  2.6341488384420D-01 -4.0728240215764D-02
   241  2.4000000000000D+00  2.5645869829870D-01 -3.9411487588286D-02
   242  2.4100000000000D+00  2.4941737082366D-01 -3.8100239852435D-02
   243  2.4200000000000D+00  2.4230808801673D-01 -3.6796542452628D-02
   244  2.4300000000000D+00  2.3514751421538D-01 -3.5502348935601D-02
   245  2.4400000000000D+00  2.2795177170432D-01 -3.4219519975000D-02
   246  2.4500000000000D+00  2.2073642293679D-01 -3.2949822631718D-02
   247  2.4600000000000D+00  2.1351645483022D-01 -3.1694929853734D-02
   248  2.4700000000000D+00  2.0630626473874D-01 -3.0456420171397D-02
   249  2.4800000000000D+00  1.9911964841681D-01 -2.9235777618188D-02
   250  2.4900000000000D+00  1.9196978991775D-01 -2.8034391868393D-02
   251  2.5000000000000D+00  1.8486925310565D-01 -2.6853558557363D-02
   252  2.5100000000000D+00  1.7782997507155D-01 -2.5694479809909D-02
   253  2.5200000000000D+00  1.7086326133390D-01 -2.4558264962336D-02
   254  2.5300000000000D+00  1.6397978256324D-01 -2.3445931451633D-02
   255  2.5400000000000D+00  1.5718957306911D-01 -2.2358405889869D-02
   256  2.5500000000000D+00  1.5050203091376D-01 -2.1296525308559D-02
   257  2.5600000000000D+00  1.4392591943811D-01 -2.0261038552646D-02
   258  2.5700000000000D+00  1.3746937036553D-01 -1.9252607832982D-02
   259  2.5800000000000D+00  1.3113988836801D-01 -1.8271810424554D-02
   260  2.5900000000000D+00  1.2494435691377D-01 -1.7319140495190D-02
   261  2.6000000000000D+00  1.1888904548191D-01 -1.6395011064456D-02
   262  2.6100000000000D+00  1.1297961806448D-01 -1.5499756082956D-02
   263  2.6200000000000D+00  1.0722114280410D-01 -1.4633632621785D-02
   264  2.6300000000000D+00  1.0161810278092D-01 -1.3796823164880D-02
   265  2.6400000000000D+00  9.6174407894744D-02 -1.2989437994366D-02
   266  2.6500000000000D+00  9.0893407725009D-02 -1.2211517664915D-02
   267  2.6600000000000D+00  8.5777905337107D-02 -1.1463035557471D-02
   268  2.6700000000000D+00  8.0830171965381D-02 -1.0743900495322D-02
   269  2.6800000000000D+00  7.6051962507218D-02 -1.0053959427590D-02
   270  2.6900000000000D+00  7.1444531797000D-02 -9.3930001748209D-03
   271  2.7000000000000D+00  6.7008651502113D-02 -8.7607542019174D-03
   272  2.7100000000000D+00  6.2744627664002D-02 -8.1568994382584D-03
   273  2.7200000000000D+00  5.8652318888078D-02 -7.5810631467106D-03
   274  2.7300000000000D+00  5.4731154879410D-02 -7.0328247847783D-03
   275  2.7400000000000D+00  5.0980155480091D-02 -6.5117188965219D-03
   276  2.7500000000000D+00  4.7397950178348D-02 -6.0172380305803D-03
   277  2.7600000000000D+00  4.3982797801527D-02 -5.5488356372903D-03
   278  2.7700000000000D+00  4.0732606484434D-02 -5.1059289651501D-03
   279  2.7800000000000D+00  3.7644953943371D-02 -4.6879019642468D-03
   280  2.7900000000000D+00  3.4717107868345D-02 -4.2941081686150D-03
   281  2.8000000000000D+00  3.1946046298566D-02 -3.9238735388152D-03
   282  2.8100000000000D+00  2.9328478138796D-02 -3.5764992930052D-03
   283  2.8200000000000D+00  2.6860863831223D-02 -3.2512647295282D-03
   284  2.8300000000000D+00  2.4539435643417D-02 -2.9474299624968D-03
   285  2.8400000000000D+00  2.2360218036165D-02 -2.6642386426744D-03
   286  2.8500000000000D+00  2.0319048056364D-02 -2.4009206555470D-03
   287  2.8600000000000D+00  1.8411595273277D-02 -2.1566947305313D-03
   288  2.8700000000000D+00  1.6633381561835D-02 -1.9307710064407D-03
   289  2.8800000000000D+00  1.4979800738057D-02 -1.7223535550752D-03
   290  2.8900000000000D+00  1.3446137911124D-02 -1.5306428459527D-03
   291  2.9000000000000D+00  1.2027588275627D-02 -1.3548381167296D-03
   292  2.9100000000000D+00  1.0719275670707D-02 -1.1941396952822D-03
   293  2.9200000000000D+00  9.5162709995374D-03 -1.0477512850220D-03
   294  2.9300000000000D+00  8.4136097749317D-03 -9.1488212174826D-04
   295  2.9400000000000D+00  7.4063094295775D-03 -7.9474908487154D-04
   296  2.9500000000000D+00  6.4893862366999D-03 -6.8657874366599D-04
   297  2.9600000000000D+00  5.6578716859292D-03 -5.8960932135729D-04
   298  2.9700000000000D+00  4.9068281638149D-03 -5.0309256029054D-04
   299  2.9800000000000D+00  4.2313642044728D-03 -4.2629552164057D-04
   300  2.9900000000000D+00  3.6266494333626D-03 -3.5850233238516D-04
   301  3.0000000000000D+00  3.0879284918533D-03 -2.9901580217934D-04
   302  3.0100000000000D+00  2.6105345884117D-03 -2.4715898280662D-04
   303  3.0200000000000D+00  2.1899024879127D-03 -2.0227664939177D-04
   304  3.0300000000000D+00  1.8215809132646D-03 -1.6373670189917D-04
   305  3.0400000000000D+00  1.5012440872803D-03 -1.3093146073458D-04
   306  3.0500000000000D+00  1.2247027827678D-03 -1.0327889464591D-04
   307  3.0600000000000D+00  9.8791488070508D-04 -8.0223778431822D-05
   308  3.0700000000000D+00  7.8699501692296D-04 -6.1238745806224D-05
   309  3.0800000000000D+00  6.1822364546083D-04 -4.5825266432107D-05
   310  3.0900000000000D+00  4.7805544935520D-04 -3.3514542356388D-05
   311  3.1000000000000D+00  3.6312726543085D-04 -2.3868334867819D-05
   312  3.1100000000000D+00  2.7026498915931D-04 -1.6479686474462D-05
   313  3.1200000000000D+00  1.9649104103471D-04 -1.0974472012419D-05
   314  3.1300000000000D+00  1.3902810822046D-04 -7.0102003189798D-06
   315  3.1400000000000D+00  9.5302350071204D-05 -4.2748572026170D-06
   316  3.1500000000000D+00  6.2952973007957D-05 -2.4919195601626D-06
   317  3.1600000000000D+00  3.9834216975379D-05 -1.4169702624121D-06
   318  3.1700000000000D+00  2.4020156502812D-05 -8.4602344328769D-07
   319  3.1800000000000D+00  1.3805696490531D-05 -6.1071693493993D-07
   320  3.1900000000000D+00  7.7065119860304D-06 -5.7395599079924D-07
   321  3.2000000000000D+00  4.5026327470629D-06 -6.3553913644946D-07
   322  3.2100000000000D+00  3.0877342050391D-06 -7.0913305170808D-07
   323  3.2200000000000D+00  2.6027688689951D-06 -7.3886447369111D-07
   324  3.2300000000000D+00  2.4166807976118D-06 -6.9472305884540D-07
   325  3.2400000000000D+00  1.9460703330941D-06 -5.4647027941056D-07
   326  3.2500000000000D+00  1.3073820255529D-06 -3.5001192491273D-07
   327  3.2600000000000D+00  5.7593155257965D-07 -1.4640136001526D-07
   328  3.2700000000000D+00 -5.0572300350789D-08  1.5063546612263D-08
   329  3.2800000000000D+00 -2.5199534191933D-07  7.4145746536886D-08
   330  3.2900000000000D+00 -2.6116690364433D-07  7.5846657575429D-08
   331  3.3000000000000D+00 -1.3579199597421D-07  3.8927080678582D-08
   332  3.3100000000000D+00  1.0559004705429D-08 -3.9392599505678D-09
   333  3.3200000000000D+00  4.0346317220026D-08 -1.5236150425526D-08
   334  3.3300000000000D+00  4.2434220016253D-08 -1.6195180861760D-08
   335  3.3400000000000D+00  2.2077071779866D-08 -8.5045621572367D-09
   336  3.3500000000000D+00 -1.6665647228171D-09  4.7904760795697D-10
   337  3.3600000000000D+00 -6.0701080154725D-09  1.7448291596724D-09
   338  3.3700000000000D+00 -6.6174320022510D-09  1.9021553307199D-09
   339  3.3800000000000D+00 -3.6107301115869D-09  1.0378904576896D-09
   340  3.3900000000000D+00  0.0000000000000D+00  0.0000000000000D+00
   341  3.4000000000000D+00  0.0000000000000D+00  0.0000000000000D+00
   342  3.4100000000000D+00  0.0000000000000D+00  0.0000000000000D+00
   343  3.4200000000000D+00  0.0000000000000D+00  0.0000000000000D+00
   344  3.4300000000000D+00  0.0000000000000D+00  0.0000000000000D+00
   345  3.4400000000000D+00  0.0000000000000D+00  0.0000000000000D+00
   346  3.4500000000000D+00  0.0000000000000D+00  0.0000000000000D+00
   347  3.4600000000000D+00  0.0000000000000D+00  0.0000000000000D+00
   348  3.4700000000000D+00  0.0000000000000D+00  0.0000000000000D+00
   349  3.4800000000000D+00  0.0000000000000D+00  0.0000000000000D+00
   350  3.4900000000000D+00  0.0000000000000D+00  0.0000000000000D+00
   351  3.5000000000000D+00  0.0000000000000D+00  0.0000000000000D+00
   352  3.5100000000000D+00  0.0000000000000D+00  0.0000000000000D+00
   353  3.5200000000000D+00  0.0000000000000D+00  0.0000000000000D+00
   354  3.5300000000000D+00  0.0000000000000D+00  0.0000000000000D+00
   355  3.5400000000000D+00  0.0000000000000D+00  0.0000000000000D+00
   356  3.5500000000000D+00  0.0000000000000D+00  0.0000000000000D+00
   357  3.5600000000000D+00  0.0000000000000D+00  0.0000000000000D+00
   358  3.5700000000000D+00  0.0000000000000D+00  0.0000000000000D+00
   359  3.5800000000000D+00  0.0000000000000D+00  0.0000000000000D+00
   360  3.5900000000000D+00  0.0000000000000D+00  0.0000000000000D+00
   361  3.6000000000000D+00  0.0000000000000D+00  0.0000000000000D+00
   362  3.6100000000000D+00  0.0000000000000D+00  0.0000000000000D+00
   363  3.6200000000000D+00  0.0000000000000D+00  0.0000000000000D+00
   364  3.6300000000000D+00  0.0000000000000D+00  0.0000000000000D+00
   365  3.6400000000000D+00  0.0000000000000D+00  0.0000000000000D+00
   366  3.6500000000000D+00  0.0000000000000D+00  0.0000000000000D+00
   367  3.6600000000000D+00  0.0000000000000D+00  0.0000000000000D+00
   368  3.6700000000000D+00  0.0000000000000D+00  0.0000000000000D+00
   369  3.6800000000000D+00  0.0000000000000D+00  0.0000000000000D+00
   370  3.6900000000000D+00  0.0000000000000D+00  0.0000000000000D+00
   371  3.7000000000000D+00  0.0000000000000D+00  0.0000000000000D+00
   372  3.7100000000000D+00  0.0000000000000D+00  0.0000000000000D+00
   373  3.7200000000000D+00  0.0000000000000D+00  0.0000000000000D+00
   374  3.7300000000000D+00  0.0000000000000D+00  0.0000000000000D+00
   375  3.7400000000000D+00  0.0000000000000D+00  0.0000000000000D+00
   376  3.7500000000000D+00  0.0000000000000D+00  0.0000000000000D+00
   377  3.7600000000000D+00  0.0000000000000D+00  0.0000000000000D+00
   378  3.7700000000000D+00  0.0000000000000D+00  0.0000000000000D+00
   379  3.7800000000000D+00  0.0000000000000D+00  0.0000000000000D+00
   380  3.7900000000000D+00  0.0000000000000D+00  0.0000000000000D+00
   381  3.8000000000000D+00  0.0000000000000D+00  0.0000000000000D+00
   382  3.8100000000000D+00  0.0000000000000D+00  0.0000000000000D+00
   383  3.8200000000000D+00  0.0000000000000D+00  0.0000000000000D+00
   384  3.8300000000000D+00  0.0000000000000D+00  0.0000000000000D+00
   385  3.8400000000000D+00  0.0000000000000D+00  0.0000000000000D+00
   386  3.8500000000000D+00  0.0000000000000D+00  0.0000000000000D+00
   387  3.8600000000000D+00  0.0000000000000D+00  0.0000000000000D+00
   388  3.8700000000000D+00  0.0000000000000D+00  0.0000000000000D+00
   389  3.8800000000000D+00  0.0000000000000D+00  0.0000000000000D+00
   390  3.8900000000000D+00  0.0000000000000D+00  0.0000000000000D+00
   391  3.9000000000000D+00  0.0000000000000D+00  0.0000000000000D+00
   392  3.9100000000000D+00  0.0000000000000D+00  0.0000000000000D+00
   393  3.9200000000000D+00  0.0000000000000D+00  0.0000000000000D+00
   394  3.9300000000000D+00  0.0000000000000D+00  0.0000000000000D+00
   395  3.9400000000000D+00  0.0000000000000D+00  0.0000000000000D+00
   396  3.9500000000000D+00  0.0000000000000D+00  0.0000000000000D+00
   397  3.9600000000000D+00  0.0000000000000D+00  0.0000000000000D+00
   398  3.9700000000000D+00  0.0000000000000D+00  0.0000000000000D+00
   399  3.9800000000000D+00  0.0000000000000D+00  0.0000000000000D+00
   400  3.9900000000000D+00  0.0000000000000D+00  0.0000000000000D+00
   401  4.0000000000000D+00  0.0000000000000D+00  0.0000000000000D+00
   402  4.0100000000000D+00  0.0000000000000D+00  0.0000000000000D+00
   403  4.0200000000000D+00  0.0000000000000D+00  0.0000000000000D+00
   404  4.0300000000000D+00  0.0000000000000D+00  0.0000000000000D+00
   405  4.0400000000000D+00  0.0000000000000D+00  0.0000000000000D+00
   406  4.0500000000000D+00  0.0000000000000D+00  0.0000000000000D+00
   407  4.0600000000000D+00  0.0000000000000D+00  0.0000000000000D+00
   408  4.0700000000000D+00  0.0000000000000D+00  0.0000000000000D+00
   409  4.0800000000000D+00  0.0000000000000D+00  0.0000000000000D+00
   410  4.0900000000000D+00  0.0000000000000D+00  0.0000000000000D+00
   411  4.1000000000000D+00  0.0000000000000D+00  0.0000000000000D+00
   412  4.1100000000000D+00  0.0000000000000D+00  0.0000000000000D+00
   413  4.1200000000000D+00  0.0000000000000D+00  0.0000000000000D+00
   414  4.1300000000000D+00  0.0000000000000D+00  0.0000000000000D+00
   415  4.1400000000000D+00  0.0000000000000D+00  0.0000000000000D+00
   416  4.1500000000000D+00  0.0000000000000D+00  0.0000000000000D+00
   417  4.1600000000000D+00  0.0000000000000D+00  0.0000000000000D+00
   418  4.1700000000000D+00  0.0000000000000D+00  0.0000000000000D+00
   419  4.1800000000000D+00  0.0000000000000D+00  0.0000000000000D+00
   420  4.1900000000000D+00  0.0000000000000D+00  0.0000000000000D+00
   421  4.2000000000000D+00  0.0000000000000D+00  0.0000000000000D+00
   422  4.2100000000000D+00  0.0000000000000D+00  0.0000000000000D+00