Co    ONCVPSP-3.3.1  r_core=   2.18438   2.08260   2.21059
     27.0000     17.0000      210904    zatom,zion,pspd
     8      11   2     4   600     0    pspcod,pspxc,lmax,lloc,mmax,r2well
  5.99000000  0.00000000  0.00000000    rchrg fchrg qchrg
     2     2     2     0    nproj
     3     1           extension_switch
     4     3     0    nprojso
   0                        -3.0927008097854D+00 -1.3950986766493D-01
     1  0.0000000000000D+00 -1.2989609388114D-12  4.7563897265235D-12
     2  1.0000000000000D-02  3.8985001729442D-02 -2.2940285698054D-02
     3  2.0000000000000D-02  7.7931980561415D-02 -4.5841400422355D-02
     4  3.0000000000000D-02  1.1680296790609D-01 -6.8664228989615D-02
     5  4.0000000000000D-02  1.5556010368215D-01 -9.1369767641796D-02
     6  5.0000000000000D-02  1.9416569030445D-01 -1.1391917937072D-01
     7  6.0000000000000D-02  2.3258224635270D-01 -1.3627384878044D-01
     8  7.0000000000000D-02  2.7077255981640D-01 -1.5839543633862D-01
     9  8.0000000000000D-02  3.0869974081237D-01 -1.8024593187333D-01
    10  9.0000000000000D-02  3.4632727367318D-01 -2.0178770717668D-01
    11  1.0000000000000D-01  3.8361906830638D-01 -2.2298356758427D-01
    12  1.1000000000000D-01  4.2053951072671D-01 -2.4379680240666D-01
    13  1.2000000000000D-01  4.5705351266615D-01 -2.6419123409810D-01
    14  1.3000000000000D-01  4.9312656016912D-01 -2.8413126605702D-01
    15  1.4000000000000D-01  5.2872476108352D-01 -3.0358192896347D-01
    16  1.5000000000000D-01  5.6381489136125D-01 -3.2250892556906D-01
    17  1.6000000000000D-01  5.9836444008555D-01 -3.4087867386735D-01
    18  1.7000000000000D-01  6.3234165314622D-01 -3.5865834858375D-01
    19  1.8000000000000D-01  6.6571557548753D-01 -3.7581592093710D-01
    20  1.9000000000000D-01  6.9845609185790D-01 -3.9232019663734D-01
    21  2.0000000000000D-01  7.3053396599468D-01 -4.0814085209665D-01
    22  2.1000000000000D-01  7.6192087818145D-01 -4.2324846884432D-01
    23  2.2000000000000D-01  7.9258946112035D-01 -4.3761456614818D-01
    24  2.3000000000000D-01  8.2251333406590D-01 -4.5121163185809D-01
    25  2.4000000000000D-01  8.5166713517199D-01 -4.6401315149937D-01
    26  2.5000000000000D-01  8.8002655200821D-01 -4.7599363565557D-01
    27  2.6000000000000D-01  9.0756835020655D-01 -4.8712864569143D-01
    28  2.7000000000000D-01  9.3427040020422D-01 -4.9739481787754D-01
    29  2.8000000000000D-01  9.6011170205345D-01 -5.0676988598799D-01
    30  2.9000000000000D-01  9.8507240827339D-01 -5.1523270245132D-01
    31  3.0000000000000D-01  1.0091338447246D+00 -5.2276325814323D-01
    32  3.1000000000000D-01  1.0322785294909D+00 -5.2934270091644D-01
    33  3.2000000000000D-01  1.0544901897575D+00 -5.3495335296906D-01
    34  3.3000000000000D-01  1.0757537766809D+00 -5.3957872715772D-01
    35  3.4000000000000D-01  1.0960554782471D+00 -5.4320354236495D-01
    36  3.5000000000000D-01  1.1153827301219D+00 -5.4581373803262D-01
    37  3.6000000000000D-01  1.1337242244999D+00 -5.4739648797413D-01
    38  3.7000000000000D-01  1.1510699169635D+00 -5.4794021357767D-01
    39  3.8000000000000D-01  1.1674110313648D+00 -5.4743459651051D-01
    40  3.9000000000000D-01  1.1827400627510D+00 -5.4587059103154D-01
    41  4.0000000000000D-01  1.1970507783533D+00 -5.4324043601415D-01
    42  4.1000000000000D-01  1.2103382166651D+00 -5.3953766677561D-01
    43  4.2000000000000D-01  1.2225986846368D+00 -5.3475712680171D-01
    44  4.3000000000000D-01  1.2338297530191D+00 -5.2889497944642D-01
    45  4.4000000000000D-01  1.2440302498878D+00 -5.2194871967646D-01
    46  4.5000000000000D-01  1.2532002523857D+00 -5.1391718591955D-01
    47  4.6000000000000D-01  1.2613410767204D+00 -5.0480057206194D-01
    48  4.7000000000000D-01  1.2684552664581D+00 -4.9460043962856D-01
    49  4.8000000000000D-01  1.2745465791555D+00 -4.8331973016345D-01
    50  4.9000000000000D-01  1.2796199713724D+00 -4.7096277781366D-01
    51  5.0000000000000D-01  1.2836815821122D+00 -4.5753532210340D-01
    52  5.1000000000000D-01  1.2867387147336D+00 -4.4304452086859D-01
    53  5.2000000000000D-01  1.2887998173834D+00 -4.2749896330484D-01
    54  5.3000000000000D-01  1.2898744619970D+00 -4.1090868306422D-01
    55  5.4000000000000D-01  1.2899733219149D+00 -3.9328517131866D-01
    56  5.5000000000000D-01  1.2891081481662D+00 -3.7464138968971D-01
    57  5.6000000000000D-01  1.2872917444665D+00 -3.5499178292686D-01
    58  5.7000000000000D-01  1.2845379409813D+00 -3.3435229119919D-01
    59  5.8000000000000D-01  1.2808615669045D+00 -3.1274036184779D-01
    60  5.9000000000000D-01  1.2762784219016D+00 -2.9017496043015D-01
    61  6.0000000000000D-01  1.2708052464671D+00 -2.6667658087168D-01
    62  6.1000000000000D-01  1.2644596912459D+00 -2.4226725452509D-01
    63  6.2000000000000D-01  1.2572602853685D+00 -2.1697055792382D-01
    64  6.3000000000000D-01  1.2492264038468D+00 -1.9081161900372D-01
    65  6.4000000000000D-01  1.2403782340817D+00 -1.6381712155552D-01
    66  6.5000000000000D-01  1.2307367415286D+00 -1.3601530766091D-01
    67  6.6000000000000D-01  1.2203236345693D+00 -1.0743597785705D-01
    68  6.7000000000000D-01  1.2091613286373D+00 -7.8110488767488D-02
    69  6.8000000000000D-01  1.1972729096441D+00 -4.8071747933421D-02
    70  6.9000000000000D-01  1.1846820967514D+00 -1.7354205576360D-02
    71  7.0000000000000D-01  1.1714132045376D+00  1.4006156977139D-02
    72  7.1000000000000D-01  1.1574911046028D+00  4.5971842476313D-02
    73  7.2000000000000D-01  1.1429411866585D+00  7.8503856796385D-02
    74  7.3000000000000D-01  1.1277893191483D+00  1.1156173211554D-01
    75  7.4000000000000D-01  1.1120618094435D+00  1.4510355446784D-01
    76  7.5000000000000D-01  1.0957853636614D+00  1.7908599591012D-01
    77  7.6000000000000D-01  1.0789870461495D+00  2.1346435152769D-01
    78  7.7000000000000D-01  1.0616942386831D+00  2.4819258148822D-01
    79  7.8000000000000D-01  1.0439345994223D+00  2.8322335833510D-01
    80  7.9000000000000D-01  1.0257360216739D+00  3.1850811969130D-01
    81  8.0000000000000D-01  1.0071265925061D+00  3.5399712652249D-01
    82  8.1000000000000D-01  9.8813455126408D-01  3.8963952708333D-01
    83  8.2000000000000D-01  9.6878824803325D-01  4.2538342664450D-01
    84  8.3000000000000D-01  9.4911610210078D-01  4.6117596306887D-01
    85  8.4000000000000D-01  9.2914656046457D-01  4.9696338827550D-01
    86  8.5000000000000D-01  9.0890805644075D-01  5.3269115559734D-01
    87  8.6000000000000D-01  8.8842896842168D-01  5.6830401300532D-01
    88  8.7000000000000D-01  8.6773757883735D-01  6.0374610213638D-01
    89  8.8000000000000D-01  8.4686203337425D-01  6.3896106302690D-01
    90  8.9000000000000D-01  8.2583030050702D-01  6.7389214441575D-01
    91  9.0000000000000D-01  8.0467013139912D-01  7.0848231944372D-01
    92  9.1000000000000D-01  7.8340902023026D-01  7.4267440653736D-01
    93  9.2000000000000D-01  7.6207416500916D-01  7.7641119522688D-01
    94  9.3000000000000D-01  7.4069242893159D-01  8.0963557660919D-01
    95  9.4000000000000D-01  7.1929030234458D-01  8.4229067812836D-01
    96  9.5000000000000D-01  6.9789386537876D-01  8.7432000230846D-01
    97  9.6000000000000D-01  6.7652875131181D-01  9.0566756903594D-01
    98  9.7000000000000D-01  6.5522011072676D-01  9.3627806095276D-01
    99  9.8000000000000D-01  6.3399257652963D-01  9.6609697148657D-01
   100  9.9000000000000D-01  6.1287022989152D-01  9.9507075501060D-01
   101  1.0000000000000D+00  5.9187656718077D-01  1.0231469785949D+00
   102  1.0100000000000D+00  5.7103446795088D-01  1.0502744747796D+00
   103  1.0200000000000D+00  5.5036616405021D-01  1.0764034947755D+00
   104  1.0300000000000D+00  5.2989320991928D-01  1.1014858614701D+00
   105  1.0400000000000D+00  5.0963645414094D-01  1.1254751215979D+00
   106  1.0500000000000D+00  4.8961601230846D-01  1.1483266964118D+00
   107  1.0600000000000D+00  4.6985124127541D-01  1.1699980301789D+00
   108  1.0700000000000D+00  4.5036071485033D-01  1.1904487358104D+00
   109  1.0800000000000D+00  4.3116220099777D-01  1.2096407369261D+00
   110  1.0900000000000D+00  4.1227264060537D-01  1.2275384056487D+00
   111  1.1000000000000D+00  3.9370812787501D-01  1.2441086954233D+00
   112  1.1100000000000D+00  3.7548389239371D-01  1.2593212681569D+00
   113  1.1200000000000D+00  3.5761428293719D-01  1.2731486149815D+00
   114  1.1300000000000D+00  3.4011275305634D-01  1.2855661699545D+00
   115  1.1400000000000D+00  3.2299184849317D-01  1.2965524160263D+00
   116  1.1500000000000D+00  3.0626319647028D-01  1.3060889826187D+00
   117  1.1600000000000D+00  2.8993749689298D-01  1.3141607341868D+00
   118  1.1700000000000D+00  2.7402451549951D-01  1.3207558491630D+00
   119  1.1800000000000D+00  2.5853307899003D-01  1.3258658887124D+00
   120  1.1900000000000D+00  2.4347107216170D-01  1.3294858547587D+00
   121  1.2000000000000D+00  2.2884543707003D-01  1.3316142367893D+00
   122  1.2100000000000D+00  2.1466217423229D-01  1.3322530469896D+00
   123  1.2200000000000D+00  2.0092634588456D-01  1.3314078432899D+00
   124  1.2300000000000D+00  1.8764208129652D-01  1.3290877399726D+00
   125  1.2400000000000D+00  1.7481258414191D-01  1.3253054055426D+00
   126  1.2500000000000D+00  1.6244014191814D-01  1.3200770476079D+00
   127  1.2600000000000D+00  1.5052613740191D-01  1.3134223845725D+00
   128  1.2700000000000D+00  1.3907106211861D-01  1.3053646040362D+00
   129  1.2800000000000D+00  1.2807453179991D-01  1.2959303078261D+00
   130  1.2900000000000D+00  1.1753530379750D-01  1.2851494436468D+00
   131  1.3000000000000D+00  1.0745129640964D-01  1.2730552234504D+00
   132  1.3100000000000D+00  9.7819610075715D-02  1.2596840286428D+00
   133  1.3200000000000D+00  8.8636550386704D-02  1.2450753023145D+00
   134  1.3300000000000D+00  7.9897652846582D-02  1.2292714288215D+00
   135  1.3400000000000D+00  7.1597709322775D-02  1.2123176010068D+00
   136  1.3500000000000D+00  6.3730796111084D-02  1.1942616754877D+00
   137  1.3600000000000D+00  5.6290303531056D-02  1.1751540165383D+00
   138  1.3700000000000D+00  4.9268966974469D-02  1.1550473290212D+00
   139  1.3800000000000D+00  4.2658899307654D-02  1.1339964810637D+00
   140  1.3900000000000D+00  3.6451624532647D-02  1.1120583171298D+00
   141  1.4000000000000D+00  3.0638112608581D-02  1.0892914621758D+00
   142  1.4100000000000D+00  2.5208815317348D-02  1.0657561177790D+00
   143  1.4200000000000D+00  2.0153703069818D-02  1.0415138509875D+00
   144  1.4300000000000D+00  1.5462302530053D-02  1.0166273768563D+00
   145  1.4400000000000D+00  1.1123734937881D-02  9.9116033561346D-01
   146  1.4500000000000D+00  7.1267550094459D-03  9.6517706539218D-01
   147  1.4600000000000D+00  3.4597902820938D-03  9.3874237165088D-01
   148  1.4700000000000D+00  1.1098078126425D-04  9.1192129424507D-01
   149  1.4800000000000D+00 -2.9317811282327D-03  8.8477887332791D-01
   150  1.4900000000000D+00 -5.6808108352020D-03  8.5737991514188D-01
   151  1.5000000000000D+00 -8.1485916562800D-03  8.2978875886342D-01
   152  1.5100000000000D+00 -1.0347735222252D-02  8.0206904563530D-01
   153  1.5200000000000D+00 -1.2290942215265D-02  7.7428349095467D-01
   154  1.5300000000000D+00 -1.3990963582786D-02  7.4649366154377D-01
   155  1.5400000000000D+00 -1.5460562369317D-02  7.1875975789791D-01
   156  1.5500000000000D+00 -1.6712476285495D-02  6.9114040359244D-01
   157  1.5600000000000D+00 -1.7759381150250D-02  6.6369244252018D-01
   158  1.5700000000000D+00 -1.8613855324659D-02  6.3647074512603D-01
   159  1.5800000000000D+00 -1.9288345257509D-02  6.0952802469387D-01
   160  1.5900000000000D+00 -1.9795132265411D-02  5.8291466478555D-01
   161  1.6000000000000D+00 -2.0146300642567D-02  5.5667855867508D-01
   162  1.6100000000000D+00 -2.0353707231488D-02  5.3086496195584D-01
   163  1.6200000000000D+00 -2.0428952516897D-02  5.0551635886602D-01
   164  1.6300000000000D+00 -2.0383353385567D-02  4.8067234362185D-01
   165  1.6400000000000D+00 -2.0227917575327D-02  4.5636951693755D-01
   166  1.6500000000000D+00 -1.9973319968780D-02  4.3264139915082D-01
   167  1.6600000000000D+00 -1.9629880712073D-02  4.0951835972026D-01
   168  1.6700000000000D+00 -1.9207545326510D-02  3.8702756464122D-01
   169  1.6800000000000D+00 -1.8715866749064D-02  3.6519294111308D-01
   170  1.6900000000000D+00 -1.8163989479232D-02  3.4403516110977D-01
   171  1.7000000000000D+00 -1.7560635725399D-02  3.2357164276084D-01
   172  1.7100000000000D+00 -1.6914093732874D-02  3.0381657125344D-01
   173  1.7200000000000D+00 -1.6232208148470D-02  2.8478093777778D-01
   174  1.7300000000000D+00 -1.5522372600873D-02  2.6647259821004D-01
   175  1.7400000000000D+00 -1.4791524321585D-02  2.4889634974949D-01
   176  1.7500000000000D+00 -1.4046140972051D-02  2.3205402708011D-01
   177  1.7600000000000D+00 -1.3292239483902D-02  2.1594461608818D-01
   178  1.7700000000000D+00 -1.2535377050248D-02  2.0056438644105D-01
   179  1.7800000000000D+00 -1.1780654073255D-02  1.8590704103479D-01
   180  1.7900000000000D+00 -1.1032719161520D-02  1.7196388318091D-01
   181  1.8000000000000D+00 -1.0295775999734D-02  1.5872399970706D-01
   182  1.8100000000000D+00 -9.5735921219781D-03  1.4617446022625D-01
   183  1.8200000000000D+00 -8.8695094476389D-03  1.3430053111153D-01
   184  1.8300000000000D+00 -8.1864565338017D-03  1.2308590365876D-01
   185  1.8400000000000D+00 -7.5269624547725D-03  1.1251293548976D-01
   186  1.8500000000000D+00 -6.8931721773047D-03  1.0256290382814D-01
   187  1.8600000000000D+00 -6.2868633991190D-03  9.3216270266619D-02
   188  1.8700000000000D+00 -5.7094646403825D-03  8.4452954875393D-02
   189  1.8800000000000D+00 -5.1620747358322D-03  7.6252629937483D-02
   190  1.8900000000000D+00 -4.6454825837111D-03  6.8594964247553D-02
   191  1.9000000000000D+00 -4.1601902868829D-03  6.1460050416169D-02
   192  1.9100000000000D+00 -3.7064316164830D-03  5.4828436408381D-02
   193  1.9200000000000D+00 -3.2841967518444D-03  4.8681561594013D-02
   194  1.9300000000000D+00 -2.8932619345897D-03  4.3002530546918D-02
   195  1.9400000000000D+00 -2.5332097954642D-03  3.7776161695086D-02
   196  1.9500000000000D+00 -2.2034338080834D-03  3.2987819302623D-02
   197  1.9600000000000D+00 -1.9031501993498D-03  2.8622775484507D-02
   198  1.9700000000000D+00 -1.6314098588810D-03  2.4665694546779D-02
   199  1.9800000000000D+00 -1.3870981412370D-03  2.1099176274563D-02
   200  1.9900000000000D+00 -1.1689609806893D-03  1.7904291403546D-02
   201  2.0000000000000D+00 -9.7563028663778D-04  1.5061099247761D-02
   202  2.0100000000000D+00 -8.0564618750775D-04  1.2548947479659D-02
   203  2.0200000000000D+00 -6.5747465518669D-04  1.0346438660546D-02
   204  2.0300000000000D+00 -5.2952950058903D-04  8.4317735698377D-03
   205  2.0400000000000D+00 -4.2019102523547D-04  6.7828939561542D-03
   206  2.0500000000000D+00 -3.2782484769881D-04  5.3776832746850D-03
   207  2.0600000000000D+00 -2.5079952565549D-04  4.1941442903063D-03
   208  2.0700000000000D+00 -1.8750315902785D-04  3.2105658813839D-03
   209  2.0800000000000D+00 -1.3635896002461D-04  2.4056787520043D-03
   210  2.0900000000000D+00 -9.5839422751375D-05  1.7587969580247D-03
   211  2.1000000000000D+00 -6.4479441922891D-05  1.2499480109525D-03
   212  2.1100000000000D+00 -4.0885036485472D-05  8.6000517755046D-04
   213  2.1200000000000D+00 -2.3747383981048D-05  5.7076372741481D-04
   214  2.1300000000000D+00 -1.1871084846124D-05  3.6490429759515D-04
   215  2.1400000000000D+00 -4.1855651601401D-06  2.2571363300380D-04
   216  2.1500000000000D+00  4.1649844636280D-07  1.3939421669222D-04
   217  2.1600000000000D+00  2.9388483393869D-06  9.3541068132010D-05
   218  2.1700000000000D+00  4.1807136543246D-06  7.6206548609748D-05
   219  2.1800000000000D+00  4.2675203694605D-06  6.7513946720423D-05
   220  2.1900000000000D+00  3.2218128047243D-06  5.0689399933607D-05
   221  2.2000000000000D+00  1.5478368175646D-06  2.4891664813595D-05
   222  2.2100000000000D+00  6.8344362158088D-08  1.1338914087782D-06
   223  2.2200000000000D+00 -4.1357295300971D-07 -6.3127307793294D-06
   224  2.2300000000000D+00 -2.6739307935927D-07 -4.1030262764234D-06
   225  2.2400000000000D+00  3.9831478467325D-08  5.6626196259997D-07
   226  2.2500000000000D+00  9.8942688592643D-08  1.3983102126321D-06
   227  2.2600000000000D+00  4.0094717532272D-08  5.6392005664593D-07
   228  2.2700000000000D+00 -7.9475349959294D-09 -1.2517408188967D-07
   229  2.2800000000000D+00 -1.0582176105336D-08 -1.6666981385532D-07
   230  2.2900000000000D+00 -1.3873863355260D-09 -2.1851405607486D-08
   231  2.3000000000000D+00  0.0000000000000D+00  0.0000000000000D+00
   232  2.3100000000000D+00  0.0000000000000D+00  0.0000000000000D+00
   233  2.3200000000000D+00  0.0000000000000D+00  0.0000000000000D+00
   234  2.3300000000000D+00  0.0000000000000D+00  0.0000000000000D+00
   235  2.3400000000000D+00  0.0000000000000D+00  0.0000000000000D+00
   236  2.3500000000000D+00  0.0000000000000D+00  0.0000000000000D+00
   237  2.3600000000000D+00  0.0000000000000D+00  0.0000000000000D+00
   238  2.3700000000000D+00  0.0000000000000D+00  0.0000000000000D+00
   239  2.3800000000000D+00  0.0000000000000D+00  0.0000000000000D+00
   240  2.3900000000000D+00  0.0000000000000D+00  0.0000000000000D+00
   241  2.4000000000000D+00  0.0000000000000D+00  0.0000000000000D+00
   242  2.4100000000000D+00  0.0000000000000D+00  0.0000000000000D+00
   243  2.4200000000000D+00  0.0000000000000D+00  0.0000000000000D+00
   244  2.4300000000000D+00  0.0000000000000D+00  0.0000000000000D+00
   245  2.4400000000000D+00  0.0000000000000D+00  0.0000000000000D+00
   246  2.4500000000000D+00  0.0000000000000D+00  0.0000000000000D+00
   247  2.4600000000000D+00  0.0000000000000D+00  0.0000000000000D+00
   248  2.4700000000000D+00  0.0000000000000D+00  0.0000000000000D+00
   249  2.4800000000000D+00  0.0000000000000D+00  0.0000000000000D+00
   250  2.4900000000000D+00  0.0000000000000D+00  0.0000000000000D+00
   251  2.5000000000000D+00  0.0000000000000D+00  0.0000000000000D+00
   252  2.5100000000000D+00  0.0000000000000D+00  0.0000000000000D+00
   253  2.5200000000000D+00  0.0000000000000D+00  0.0000000000000D+00
   254  2.5300000000000D+00  0.0000000000000D+00  0.0000000000000D+00
   255  2.5400000000000D+00  0.0000000000000D+00  0.0000000000000D+00
   256  2.5500000000000D+00  0.0000000000000D+00  0.0000000000000D+00
   257  2.5600000000000D+00  0.0000000000000D+00  0.0000000000000D+00
   258  2.5700000000000D+00  0.0000000000000D+00  0.0000000000000D+00
   259  2.5800000000000D+00  0.0000000000000D+00  0.0000000000000D+00
   260  2.5900000000000D+00  0.0000000000000D+00  0.0000000000000D+00
   261  2.6000000000000D+00  0.0000000000000D+00  0.0000000000000D+00
   262  2.6100000000000D+00  0.0000000000000D+00  0.0000000000000D+00
   263  2.6200000000000D+00  0.0000000000000D+00  0.0000000000000D+00
   264  2.6300000000000D+00  0.0000000000000D+00  0.0000000000000D+00
   265  2.6400000000000D+00  0.0000000000000D+00  0.0000000000000D+00
   266  2.6500000000000D+00  0.0000000000000D+00  0.0000000000000D+00
   267  2.6600000000000D+00  0.0000000000000D+00  0.0000000000000D+00
   268  2.6700000000000D+00  0.0000000000000D+00  0.0000000000000D+00
   269  2.6800000000000D+00  0.0000000000000D+00  0.0000000000000D+00
   270  2.6900000000000D+00  0.0000000000000D+00  0.0000000000000D+00
   271  2.7000000000000D+00  0.0000000000000D+00  0.0000000000000D+00
   272  2.7100000000000D+00  0.0000000000000D+00  0.0000000000000D+00
   273  2.7200000000000D+00  0.0000000000000D+00  0.0000000000000D+00
   274  2.7300000000000D+00  0.0000000000000D+00  0.0000000000000D+00
   275  2.7400000000000D+00  0.0000000000000D+00  0.0000000000000D+00
   276  2.7500000000000D+00  0.0000000000000D+00  0.0000000000000D+00
   277  2.7600000000000D+00  0.0000000000000D+00  0.0000000000000D+00
   278  2.7700000000000D+00  0.0000000000000D+00  0.0000000000000D+00
   279  2.7800000000000D+00  0.0000000000000D+00  0.0000000000000D+00
   280  2.7900000000000D+00  0.0000000000000D+00  0.0000000000000D+00
   281  2.8000000000000D+00  0.0000000000000D+00  0.0000000000000D+00
   282  2.8100000000000D+00  0.0000000000000D+00  0.0000000000000D+00
   283  2.8200000000000D+00  0.0000000000000D+00  0.0000000000000D+00
   284  2.8300000000000D+00  0.0000000000000D+00  0.0000000000000D+00
   285  2.8400000000000D+00  0.0000000000000D+00  0.0000000000000D+00
   286  2.8500000000000D+00  0.0000000000000D+00  0.0000000000000D+00
   287  2.8600000000000D+00  0.0000000000000D+00  0.0000000000000D+00
   288  2.8700000000000D+00  0.0000000000000D+00  0.0000000000000D+00
   289  2.8800000000000D+00  0.0000000000000D+00  0.0000000000000D+00
   290  2.8900000000000D+00  0.0000000000000D+00  0.0000000000000D+00
   291  2.9000000000000D+00  0.0000000000000D+00  0.0000000000000D+00
   292  2.9100000000000D+00  0.0000000000000D+00  0.0000000000000D+00
   293  2.9200000000000D+00  0.0000000000000D+00  0.0000000000000D+00
   294  2.9300000000000D+00  0.0000000000000D+00  0.0000000000000D+00
   295  2.9400000000000D+00  0.0000000000000D+00  0.0000000000000D+00
   296  2.9500000000000D+00  0.0000000000000D+00  0.0000000000000D+00
   297  2.9600000000000D+00  0.0000000000000D+00  0.0000000000000D+00
   298  2.9700000000000D+00  0.0000000000000D+00  0.0000000000000D+00
   299  2.9800000000000D+00  0.0000000000000D+00  0.0000000000000D+00
   300  2.9900000000000D+00  0.0000000000000D+00  0.0000000000000D+00
   301  3.0000000000000D+00  0.0000000000000D+00  0.0000000000000D+00
   302  3.0100000000000D+00  0.0000000000000D+00  0.0000000000000D+00
   303  3.0200000000000D+00  0.0000000000000D+00  0.0000000000000D+00
   304  3.0300000000000D+00  0.0000000000000D+00  0.0000000000000D+00
   305  3.0400000000000D+00  0.0000000000000D+00  0.0000000000000D+00
   306  3.0500000000000D+00  0.0000000000000D+00  0.0000000000000D+00
   307  3.0600000000000D+00  0.0000000000000D+00  0.0000000000000D+00
   308  3.0700000000000D+00  0.0000000000000D+00  0.0000000000000D+00
   309  3.0800000000000D+00  0.0000000000000D+00  0.0000000000000D+00
   310  3.0900000000000D+00  0.0000000000000D+00  0.0000000000000D+00
   311  3.1000000000000D+00  0.0000000000000D+00  0.0000000000000D+00
   312  3.1100000000000D+00  0.0000000000000D+00  0.0000000000000D+00
   313  3.1200000000000D+00  0.0000000000000D+00  0.0000000000000D+00
   314  3.1300000000000D+00  0.0000000000000D+00  0.0000000000000D+00
   315  3.1400000000000D+00  0.0000000000000D+00  0.0000000000000D+00
   316  3.1500000000000D+00  0.0000000000000D+00  0.0000000000000D+00
   317  3.1600000000000D+00  0.0000000000000D+00  0.0000000000000D+00
   318  3.1700000000000D+00  0.0000000000000D+00  0.0000000000000D+00
   319  3.1800000000000D+00  0.0000000000000D+00  0.0000000000000D+00
   320  3.1900000000000D+00  0.0000000000000D+00  0.0000000000000D+00
   321  3.2000000000000D+00  0.0000000000000D+00  0.0000000000000D+00
   322  3.2100000000000D+00  0.0000000000000D+00  0.0000000000000D+00
   323  3.2200000000000D+00  0.0000000000000D+00  0.0000000000000D+00
   324  3.2300000000000D+00  0.0000000000000D+00  0.0000000000000D+00
   325  3.2400000000000D+00  0.0000000000000D+00  0.0000000000000D+00
   326  3.2500000000000D+00  0.0000000000000D+00  0.0000000000000D+00
   327  3.2600000000000D+00  0.0000000000000D+00  0.0000000000000D+00
   328  3.2700000000000D+00  0.0000000000000D+00  0.0000000000000D+00
   329  3.2800000000000D+00  0.0000000000000D+00  0.0000000000000D+00
   330  3.2900000000000D+00  0.0000000000000D+00  0.0000000000000D+00
   331  3.3000000000000D+00  0.0000000000000D+00  0.0000000000000D+00
   332  3.3100000000000D+00  0.0000000000000D+00  0.0000000000000D+00
   333  3.3200000000000D+00  0.0000000000000D+00  0.0000000000000D+00
   334  3.3300000000000D+00  0.0000000000000D+00  0.0000000000000D+00
   335  3.3400000000000D+00  0.0000000000000D+00  0.0000000000000D+00
   336  3.3500000000000D+00  0.0000000000000D+00  0.0000000000000D+00
   337  3.3600000000000D+00  0.0000000000000D+00  0.0000000000000D+00
   338  3.3700000000000D+00  0.0000000000000D+00  0.0000000000000D+00
   339  3.3800000000000D+00  0.0000000000000D+00  0.0000000000000D+00
   340  3.3900000000000D+00  0.0000000000000D+00  0.0000000000000D+00
   341  3.4000000000000D+00  0.0000000000000D+00  0.0000000000000D+00
   342  3.4100000000000D+00  0.0000000000000D+00  0.0000000000000D+00
   343  3.4200000000000D+00  0.0000000000000D+00  0.0000000000000D+00
   344  3.4300000000000D+00  0.0000000000000D+00  0.0000000000000D+00
   345  3.4400000000000D+00  0.0000000000000D+00  0.0000000000000D+00
   346  3.4500000000000D+00  0.0000000000000D+00  0.0000000000000D+00
   347  3.4600000000000D+00  0.0000000000000D+00  0.0000000000000D+00
   348  3.4700000000000D+00  0.0000000000000D+00  0.0000000000000D+00
   349  3.4800000000000D+00  0.0000000000000D+00  0.0000000000000D+00
   350  3.4900000000000D+00  0.0000000000000D+00  0.0000000000000D+00
   351  3.5000000000000D+00  0.0000000000000D+00  0.0000000000000D+00
   352  3.5100000000000D+00  0.0000000000000D+00  0.0000000000000D+00
   353  3.5200000000000D+00  0.0000000000000D+00  0.0000000000000D+00
   354  3.5300000000000D+00  0.0000000000000D+00  0.0000000000000D+00
   355  3.5400000000000D+00  0.0000000000000D+00  0.0000000000000D+00
   356  3.5500000000000D+00  0.0000000000000D+00  0.0000000000000D+00
   357  3.5600000000000D+00  0.0000000000000D+00  0.0000000000000D+00
   358  3.5700000000000D+00  0.0000000000000D+00  0.0000000000000D+00
   359  3.5800000000000D+00  0.0000000000000D+00  0.0000000000000D+00
   360  3.5900000000000D+00  0.0000000000000D+00  0.0000000000000D+00
   361  3.6000000000000D+00  0.0000000000000D+00  0.0000000000000D+00
   362  3.6100000000000D+00  0.0000000000000D+00  0.0000000000000D+00
   363  3.6200000000000D+00  0.0000000000000D+00  0.0000000000000D+00
   364  3.6300000000000D+00  0.0000000000000D+00  0.0000000000000D+00
   365  3.6400000000000D+00  0.0000000000000D+00  0.0000000000000D+00
   366  3.6500000000000D+00  0.0000000000000D+00  0.0000000000000D+00
   367  3.6600000000000D+00  0.0000000000000D+00  0.0000000000000D+00
   368  3.6700000000000D+00  0.0000000000000D+00  0.0000000000000D+00
   369  3.6800000000000D+00  0.0000000000000D+00  0.0000000000000D+00
   370  3.6900000000000D+00  0.0000000000000D+00  0.0000000000000D+00
   371  3.7000000000000D+00  0.0000000000000D+00  0.0000000000000D+00
   372  3.7100000000000D+00  0.0000000000000D+00  0.0000000000000D+00
   373  3.7200000000000D+00  0.0000000000000D+00  0.0000000000000D+00
   374  3.7300000000000D+00  0.0000000000000D+00  0.0000000000000D+00
   375  3.7400000000000D+00  0.0000000000000D+00  0.0000000000000D+00
   376  3.7500000000000D+00  0.0000000000000D+00  0.0000000000000D+00
   377  3.7600000000000D+00  0.0000000000000D+00  0.0000000000000D+00
   378  3.7700000000000D+00  0.0000000000000D+00  0.0000000000000D+00
   379  3.7800000000000D+00  0.0000000000000D+00  0.0000000000000D+00
   380  3.7900000000000D+00  0.0000000000000D+00  0.0000000000000D+00
   381  3.8000000000000D+00  0.0000000000000D+00  0.0000000000000D+00
   382  3.8100000000000D+00  0.0000000000000D+00  0.0000000000000D+00
   383  3.8200000000000D+00  0.0000000000000D+00  0.0000000000000D+00
   384  3.8300000000000D+00  0.0000000000000D+00  0.0000000000000D+00
   385  3.8400000000000D+00  0.0000000000000D+00  0.0000000000000D+00
   386  3.8500000000000D+00  0.0000000000000D+00  0.0000000000000D+00
   387  3.8600000000000D+00  0.0000000000000D+00  0.0000000000000D+00
   388  3.8700000000000D+00  0.0000000000000D+00  0.0000000000000D+00
   389  3.8800000000000D+00  0.0000000000000D+00  0.0000000000000D+00
   390  3.8900000000000D+00  0.0000000000000D+00  0.0000000000000D+00
   391  3.9000000000000D+00  0.0000000000000D+00  0.0000000000000D+00
   392  3.9100000000000D+00  0.0000000000000D+00  0.0000000000000D+00
   393  3.9200000000000D+00  0.0000000000000D+00  0.0000000000000D+00
   394  3.9300000000000D+00  0.0000000000000D+00  0.0000000000000D+00
   395  3.9400000000000D+00  0.0000000000000D+00  0.0000000000000D+00
   396  3.9500000000000D+00  0.0000000000000D+00  0.0000000000000D+00
   397  3.9600000000000D+00  0.0000000000000D+00  0.0000000000000D+00
   398  3.9700000000000D+00  0.0000000000000D+00  0.0000000000000D+00
   399  3.9800000000000D+00  0.0000000000000D+00  0.0000000000000D+00
   400  3.9900000000000D+00  0.0000000000000D+00  0.0000000000000D+00
   401  4.0000000000000D+00  0.0000000000000D+00  0.0000000000000D+00
   402  4.0100000000000D+00  0.0000000000000D+00  0.0000000000000D+00
   403  4.0200000000000D+00  0.0000000000000D+00  0.0000000000000D+00
   404  4.0300000000000D+00  0.0000000000000D+00  0.0000000000000D+00
   405  4.0400000000000D+00  0.0000000000000D+00  0.0000000000000D+00
   406  4.0500000000000D+00  0.0000000000000D+00  0.0000000000000D+00
   407  4.0600000000000D+00  0.0000000000000D+00  0.0000000000000D+00
   408  4.0700000000000D+00  0.0000000000000D+00  0.0000000000000D+00
   409  4.0800000000000D+00  0.0000000000000D+00  0.0000000000000D+00
   410  4.0900000000000D+00  0.0000000000000D+00  0.0000000000000D+00
   411  4.1000000000000D+00  0.0000000000000D+00  0.0000000000000D+00
   412  4.1100000000000D+00  0.0000000000000D+00  0.0000000000000D+00
   413  4.1200000000000D+00  0.0000000000000D+00  0.0000000000000D+00
   414  4.1300000000000D+00  0.0000000000000D+00  0.0000000000000D+00
   415  4.1400000000000D+00  0.0000000000000D+00  0.0000000000000D+00
   416  4.1500000000000D+00  0.0000000000000D+00  0.0000000000000D+00
   417  4.1600000000000D+00  0.0000000000000D+00  0.0000000000000D+00
   418  4.1700000000000D+00  0.0000000000000D+00  0.0000000000000D+00
   419  4.1800000000000D+00  0.0000000000000D+00  0.0000000000000D+00
   420  4.1900000000000D+00  0.0000000000000D+00  0.0000000000000D+00
   421  4.2000000000000D+00  0.0000000000000D+00  0.0000000000000D+00
   422  4.2100000000000D+00  0.0000000000000D+00  0.0000000000000D+00