Cs    ONCVPSP-3.3.1  r_core=   2.56157   2.32843   2.19361
     55.0000      9.0000      210904    zatom,zion,pspd
     8      11   2     4   600     0    pspcod,pspxc,lmax,lloc,mmax,r2well
  5.99000000  0.00000000  0.00000000    rchrg fchrg qchrg
     2     2     2     0     0    nproj
     1     1           extension_switch
   0                         6.1747186276822D+00  8.0105465371290D-01
     1  0.0000000000000D+00  3.6718128537672D-12 -1.1757567142112D-11
     2  1.0000000000000D-02  2.1511709118110D-02  3.5499386464745D-03
     3  2.0000000000000D-02  4.3032542112026D-02  7.0540369588125D-03
     4  3.0000000000000D-02  6.4571542305440D-02  1.0466687092981D-02
     5  4.0000000000000D-02  8.6137592216616D-02  1.3742745286994D-02
     6  5.0000000000000D-02  1.0773933390177D-01  1.6837761659475D-02
     7  6.0000000000000D-02  1.2938509019117D-01  1.9708207325508D-02
     8  7.0000000000000D-02  1.5108278711130D-01  2.2311697949238D-02
     9  8.0000000000000D-02  1.7283987778265D-01  2.4607212864417D-02
    10  9.0000000000000D-02  1.9466326807823D-01  2.6555308908620D-02
    11  1.0000000000000D-01  2.1655924432249D-01  2.8118328134375D-02
    12  1.1000000000000D-01  2.3853340330388D-01  2.9260598580545D-02
    13  1.2000000000000D-01  2.6059058486713D-01  2.9948627310428D-02
    14  1.3000000000000D-01  2.8273480734351D-01  3.0151284948562D-02
    15  1.4000000000000D-01  3.0496920606808D-01  2.9839980976654D-02
    16  1.5000000000000D-01  3.2729597522369D-01  2.8988829079870D-02
    17  1.6000000000000D-01  3.4971631324081D-01  2.7574801868024D-02
    18  1.7000000000000D-01  3.7223037197107D-01  2.5577874332103D-02
    19  1.8000000000000D-01  3.9483720984068D-01  2.2981155434524D-02
    20  1.9000000000000D-01  4.1753474917708D-01  1.9771007271845D-02
    21  2.0000000000000D-01  4.4031973788895D-01  1.5937151291065D-02
    22  2.1000000000000D-01  4.6318771566589D-01  1.1472761085058D-02
    23  2.2000000000000D-01  4.8613298484937D-01  6.3745413388837D-03
    24  2.3000000000000D-01  5.0914858611174D-01  6.4279254688449D-04
    25  2.4000000000000D-01  5.3222627906442D-01 -5.7185388300690D-03
    26  2.5000000000000D-01  5.5535652790011D-01 -1.2701825046485D-02
    27  2.6000000000000D-01  5.7852849215782D-01 -2.0295736820389D-02
    28  2.7000000000000D-01  6.0173002268220D-01 -2.8485238320878D-02
    29  2.8000000000000D-01  6.2494766283183D-01 -3.7251597514023D-02
    30  2.9000000000000D-01  6.4816665497323D-01 -4.6572411929975D-02
    31  3.0000000000000D-01  6.7137095228009D-01 -5.6421649858686D-02
    32  3.1000000000000D-01  6.9454323583881D-01 -6.6769706924317D-02
    33  3.2000000000000D-01  7.1766493704371D-01 -7.7583477931830D-02
    34  3.3000000000000D-01  7.4071626524713D-01 -8.8826443821957D-02
    35  3.4000000000000D-01  7.6367624061119D-01 -1.0045877351374D-01
    36  3.5000000000000D-01  7.8652273209024D-01 -1.1243744035694D-01
    37  3.6000000000000D-01  8.0923250045472D-01 -1.2471635286051D-01
    38  3.7000000000000D-01  8.3178124624947D-01 -1.3724649930703D-01
    39  3.8000000000000D-01  8.5414366256162D-01 -1.4997610580894D-01
    40  3.9000000000000D-01  8.7629349245606D-01 -1.6285080730795D-01
    41  4.0000000000000D-01  8.9820359091924D-01 -1.7581383096678D-01
    42  4.1000000000000D-01  9.1984599113540D-01 -1.8880619135123D-01
    43  4.2000000000000D-01  9.4119197490317D-01 -2.0176689675114D-01
    44  4.3000000000000D-01  9.6221214698459D-01 -2.1463316594153D-01
    45  4.4000000000000D-01  9.8287651316358D-01 -2.2734065463910D-01
    46  4.5000000000000D-01  1.0031545617764D+00 -2.3982369086703D-01
    47  4.6000000000000D-01  1.0230153484623D+00 -2.5201551839930D-01
    48  4.7000000000000D-01  1.0424275838704D+00 -2.6384854741828D-01
    49  4.8000000000000D-01  1.0613597240453D+00 -2.7525461148400D-01
    50  4.9000000000000D-01  1.0797800632031D+00 -2.8616522988078D-01
    51  5.0000000000000D-01  1.0976568285991D+00 -2.9651187437849D-01
    52  5.1000000000000D-01  1.1149582771781D+00 -3.0622623941918D-01
    53  5.2000000000000D-01  1.1316527936897D+00 -3.1524051471799D-01
    54  5.3000000000000D-01  1.1477089899440D+00 -3.2348765924835D-01
    55  5.4000000000000D-01  1.1630958048753D+00 -3.3090167556632D-01
    56  5.5000000000000D-01  1.1777826050767D+00 -3.3741788341800D-01
    57  5.6000000000000D-01  1.1917392854636D+00 -3.4297319156640D-01
    58  5.7000000000000D-01  1.2049363697219D+00 -3.4750636677124D-01
    59  5.8000000000000D-01  1.2173451101925D+00 -3.5095829885575D-01
    60  5.9000000000000D-01  1.2289375868452D+00 -3.5327226079968D-01
    61  6.0000000000000D-01  1.2396868049939D+00 -3.5439416280688D-01
    62  6.1000000000000D-01  1.2495667914072D+00 -3.5427279930929D-01
    63  6.2000000000000D-01  1.2585526884708D+00 -3.5286008788664D-01
    64  6.3000000000000D-01  1.2666208460633D+00 -3.5011129910298D-01
    65  6.4000000000000D-01  1.2737489108105D+00 -3.4598527628758D-01
    66  6.5000000000000D-01  1.2799159123917D+00 -3.4044464431691D-01
    67  6.6000000000000D-01  1.2851023465780D+00 -3.3345600648960D-01
    68  6.7000000000000D-01  1.2892902546921D+00 -3.2499012862389D-01
    69  6.8000000000000D-01  1.2924632991887D+00 -3.1502210954868D-01
    70  6.9000000000000D-01  1.2946068350676D+00 -3.0353153720629D-01
    71  7.0000000000000D-01  1.2957079768412D+00 -2.9050262963274D-01
    72  7.1000000000000D-01  1.2957556607940D+00 -2.7592436013578D-01
    73  7.2000000000000D-01  1.2947407022863D+00 -2.5979056604551D-01
    74  7.3000000000000D-01  1.2926558478678D+00 -2.4210004047284D-01
    75  7.4000000000000D-01  1.2894958219856D+00 -2.2285660657213D-01
    76  7.5000000000000D-01  1.2852573680878D+00 -2.0206917386978D-01
    77  7.6000000000000D-01  1.2799392839415D+00 -1.7975177628664D-01
    78  7.7000000000000D-01  1.2735424510053D+00 -1.5592359155275D-01
    79  7.8000000000000D-01  1.2660698577125D+00 -1.3060894178250D-01
    80  7.9000000000000D-01  1.2575266165466D+00 -1.0383727505219D-01
    81  8.0000000000000D-01  1.2479199748066D+00 -7.5643127895401D-02
    82  8.1000000000000D-01  1.2372593189863D+00 -4.6066068707078D-02
    83  8.2000000000000D-01  1.2255561727091D+00 -1.5150622122186D-02
    84  8.3000000000000D-01  1.2128241881853D+00  1.7053825487805D-02
    85  8.4000000000000D-01  1.1990791311812D+00  5.0493139182424D-02
    86  8.5000000000000D-01  1.1843388595095D+00  8.5108566988803D-02
    87  8.6000000000000D-01  1.1686232950772D+00  1.2083688943721D-01
    88  8.7000000000000D-01  1.1519543895473D+00  1.5761058665128D-01
    89  8.8000000000000D-01  1.1343560836939D+00  1.9535802247516D-01
    90  8.9000000000000D-01  1.1158542605535D+00  2.3400364504841D-01
    91  9.0000000000000D-01  1.0964766924980D+00  2.7346820316987D-01
    92  9.1000000000000D-01  1.0762529823740D+00  3.1366897772408D-01
    93  9.2000000000000D-01  1.0552144988794D+00  3.5452002737913D-01
    94  9.3000000000000D-01  1.0333943063644D+00  3.9593244770299D-01
    95  9.4000000000000D-01  1.0108270892666D+00  4.3781464278582D-01
    96  9.5000000000000D-01  9.8754907141089D-01  4.8007260840122D-01
    97  9.6000000000000D-01  9.6359793041961D-01  5.2261022568692D-01
    98  9.7000000000000D-01  9.3901270750109D-01  5.6532956427830D-01
    99  9.8000000000000D-01  9.1383371289810D-01  6.0813119378385D-01
   100  9.9000000000000D-01  8.8810242729574D-01  6.5091450245319D-01
   101  1.0000000000000D+00  8.6186139950235D-01  6.9357802185349D-01
   102  1.0100000000000D+00  8.3515414073125D-01  7.3601975634037D-01
   103  1.0200000000000D+00  8.0802501582333D-01  7.7813751608490D-01
   104  1.0300000000000D+00  7.8051913176224D-01  8.1982925239851D-01
   105  1.0400000000000D+00  7.5268222384335D-01  8.6099339408365D-01
   106  1.0500000000000D+00  7.2456053986707D-01  9.0152918352831D-01
   107  1.0600000000000D+00  6.9620072273374D-01  9.4133701125954D-01
   108  1.0700000000000D+00  6.6764969182372D-01  9.8031874767239D-01
   109  1.0800000000000D+00  6.3895452355014D-01  1.0183780706594D+00
   110  1.0900000000000D+00  6.1016233147530D-01  1.0554207878754D+00
   111  1.1000000000000D+00  5.8132014638286D-01  1.0913551523941D+00
   112  1.1100000000000D+00  5.5247479669830D-01  1.1260921705334D+00
   113  1.1200000000000D+00  5.2367278964810D-01  1.1595459006577D+00
   114  1.1300000000000D+00  4.9496019354568D-01  1.1916337417985D+00
   115  1.1400000000000D+00  4.6638252158787D-01  1.2222767109692D+00
   116  1.1500000000000D+00  4.3798461753940D-01  1.2513997081017D+00
   117  1.1600000000000D+00  4.0981054367543D-01  1.2789317675762D+00
   118  1.1700000000000D+00  3.8190347134431D-01  1.3048062953679D+00
   119  1.1800000000000D+00  3.5430557450314D-01  1.3289612908885D+00
   120  1.1900000000000D+00  3.2705792656612D-01  1.3513395526688D+00
   121  1.2000000000000D+00  3.0020040089189D-01  1.3718888670985D+00
   122  1.2100000000000D+00  2.7377157522893D-01  1.3905621794749D+00
   123  1.2200000000000D+00  2.4780864041547D-01  1.4073177467252D+00
   124  1.2300000000000D+00  2.2234731361652D-01  1.4221192712243D+00
   125  1.2400000000000D+00  1.9742175636833D-01  1.4349360151899D+00
   126  1.2500000000000D+00  1.7306449767948D-01  1.4457428952311D+00
   127  1.2600000000000D+00  1.4930636241494D-01  1.4545205567197D+00
   128  1.2700000000000D+00  1.2617640517785D-01  1.4612554277054D+00
   129  1.2800000000000D+00  1.0370184988370D-01  1.4659397521795D+00
   130  1.2900000000000D+00  8.1908035188816D-02  1.4685716026188D+00
   131  1.3000000000000D+00  6.0818365929271D-02  1.4691548717674D+00
   132  1.3100000000000D+00  4.0454270702304D-02  1.4676992437054D+00
   133  1.3200000000000D+00  2.0835165683530D-02  1.4642201443986D+00
   134  1.3300000000000D+00  1.9784247783106D-03  1.4587386719034D+00
   135  1.3400000000000D+00 -1.6100643831960D-02  1.4512815065400D+00
   136  1.3500000000000D+00 -3.3388814723568D-02  1.4418808014662D+00
   137  1.3600000000000D+00 -4.9874955798763D-02  1.4305740540174D+00
   138  1.3700000000000D+00 -6.5550032412492D-02  1.4174039584120D+00
   139  1.3800000000000D+00 -8.0407105081969D-02  1.4024182404141D+00
   140  1.3900000000000D+00 -9.4441320801471D-02  1.3856694745476D+00
   141  1.4000000000000D+00 -1.0764989806298D-01  1.3672148846910D+00
   142  1.4100000000000D+00 -1.2003210563927D-01  1.3471161287449D+00
   143  1.4200000000000D+00 -1.3158923524570D-01  1.3254390682494D+00
   144  1.4300000000000D+00 -1.4232456821975D-01  1.3022535238658D+00
   145  1.4400000000000D+00 -1.5224333632358D-01  1.2776330175719D+00
   146  1.4500000000000D+00 -1.6135267687481D-01  1.2516545026490D+00
   147  1.4600000000000D+00 -1.6966158234084D-01  1.2243980823765D+00
   148  1.4700000000000D+00 -1.7718084461054D-01  1.1959467185302D+00
   149  1.4800000000000D+00 -1.8392299414585D-01  1.1663859307262D+00
   150  1.4900000000000D+00 -1.8990223421163D-01  1.1358034876862D+00
   151  1.5000000000000D+00 -1.9513437044942D-01  1.1042890915393D+00
   152  1.5100000000000D+00 -1.9963673598956D-01  1.0719340562466D+00
   153  1.5200000000000D+00 -2.0342811239571D-01  1.0388309812663D+00
   154  1.5300000000000D+00 -2.0652864666434D-01  1.0050734215613D+00
   155  1.5400000000000D+00 -2.0895976456695D-01  9.7075555505063D-01
   156  1.5500000000000D+00 -2.1074408059238D-01  9.3597184856578D-01
   157  1.5600000000000D+00 -2.1190530476997D-01  9.0081672343307D-01
   158  1.5700000000000D+00 -2.1246814664854D-01  8.6538422161423D-01
   159  1.5800000000000D+00 -2.1245821671429D-01  8.2976767359205D-01
   160  1.5900000000000D+00 -2.1190192551977D-01  7.9405936872400D-01
   161  1.6000000000000D+00 -2.1082638081936D-01  7.5835022934294D-01
   162  1.6100000000000D+00 -2.0925928296265D-01  7.2272948908286D-01
   163  1.6200000000000D+00 -2.0722881885705D-01  6.8728437675978D-01
   164  1.6300000000000D+00 -2.0476355472354D-01  6.5209980609213D-01
   165  1.6400000000000D+00 -2.0189232796388D-01  6.1725807253180D-01
   166  1.6500000000000D+00 -1.9864413833846D-01  5.8283855736955D-01
   167  1.6600000000000D+00 -1.9504803876941D-01  5.4891744026212D-01
   168  1.6700000000000D+00 -1.9113302594321D-01  5.1556742022955D-01
   169  1.6800000000000D+00 -1.8692793101864D-01  4.8285744614007D-01
   170  1.6900000000000D+00 -1.8246131058463D-01  4.5085245659124D-01
   171  1.7000000000000D+00 -1.7776133816495D-01  4.1961313009371D-01
   172  1.7100000000000D+00 -1.7285569637601D-01  3.8919564528456D-01
   173  1.7200000000000D+00 -1.6777147003128D-01  3.5965145200685D-01
   174  1.7300000000000D+00 -1.6253503995820D-01  3.3102705125281D-01
   175  1.7400000000000D+00 -1.5717197879244D-01  3.0336378977898D-01
   176  1.7500000000000D+00 -1.5170694869053D-01  2.7669766879497D-01
   177  1.7600000000000D+00 -1.4616359121571D-01  2.5105911502902D-01
   178  1.7700000000000D+00 -1.4056446169104D-01  2.2647297523920D-01
   179  1.7800000000000D+00 -1.3493088876091D-01  2.0295815561820D-01
   180  1.7900000000000D+00 -1.2928281078495D-01  1.8052709300123D-01
   181  1.8000000000000D+00 -1.2363889994316D-01  1.5918675523495D-01
   182  1.8100000000000D+00 -1.1801659565666D-01  1.3893918582533D-01
   183  1.8200000000000D+00 -1.1243220382417D-01  1.1978219866367D-01
   184  1.8300000000000D+00 -1.0690108378614D-01  1.0171053885529D-01
   185  1.8400000000000D+00 -1.0143763117764D-01  8.4715948799987D-02
   186  1.8500000000000D+00 -9.6055232867791D-02  6.8787043718534D-02
   187  1.8600000000000D+00 -9.0766276541622D-02  5.3909484734527D-02
   188  1.8700000000000D+00 -8.5582167983968D-02  4.0066194517742D-02
   189  1.8800000000000D+00 -8.0513331976334D-02  2.7237466338619D-02
   190  1.8900000000000D+00 -7.5569227366626D-02  1.5401143391521D-02
   191  1.9000000000000D+00 -7.0758360438876D-02  4.5327797463570D-03
   192  1.9100000000000D+00 -6.6088301872562D-02 -5.3941887242393D-03
   193  1.9200000000000D+00 -6.1565706095208D-02 -1.4408269303117D-02
   194  1.9300000000000D+00 -5.7196333024092D-02 -2.2539734154173D-02
   195  1.9400000000000D+00 -5.2985071928040D-02 -2.9820439569275D-02
   196  1.9500000000000D+00 -4.8935967314838D-02 -3.6283643778927D-02
   197  1.9600000000000D+00 -4.5052246663307D-02 -4.1963824049138D-02
   198  1.9700000000000D+00 -4.1336349823155D-02 -4.6896493878179D-02
   199  1.9800000000000D+00 -3.7789959939683D-02 -5.1118021468122D-02
   200  1.9900000000000D+00 -3.4414035727832D-02 -5.4665449525072D-02
   201  2.0000000000000D+00 -3.1208844908522D-02 -5.7576318308462D-02
   202  2.0100000000000D+00 -2.8173998689760D-02 -5.9888491449499D-02
   203  2.0200000000000D+00 -2.5308487072173D-02 -6.1639986265599D-02
   204  2.0300000000000D+00 -2.2610714846353D-02 -6.2868808867217D-02
   205  2.0400000000000D+00 -2.0078538157254D-02 -6.3612794291641D-02
   206  2.0500000000000D+00 -1.7709301355658D-02 -6.3909453624379D-02
   207  2.0600000000000D+00 -1.5499874189787D-02 -6.3795826677707D-02
   208  2.0700000000000D+00 -1.3446688950856D-02 -6.3308342945009D-02
   209  2.0800000000000D+00 -1.1545777618556D-02 -6.2482689703518D-02
   210  2.0900000000000D+00 -9.7928088207623D-03 -6.1353688117994D-02
   211  2.1000000000000D+00 -8.1831243368420D-03 -5.9955178850825D-02
   212  2.1100000000000D+00 -6.7117753270404D-03 -5.8319915138123D-02
   213  2.1200000000000D+00 -5.3735577866049D-03 -5.6479466562590D-02
   214  2.1300000000000D+00 -4.1630474772347D-03 -5.4464131210679D-02
   215  2.1400000000000D+00 -3.0746340769592D-03 -5.2302857394510D-02
   216  2.1500000000000D+00 -2.1025542236047D-03 -5.0023176472683D-02
   217  2.1600000000000D+00 -1.2409235599842D-03 -4.7651144929934D-02
   218  2.1700000000000D+00 -4.8376809820328D-04 -4.5211295553321D-02
   219  2.1800000000000D+00  1.7494549807782D-04 -4.2726598037852D-02
   220  2.1900000000000D+00  7.4128047051979D-04 -4.0218427850440D-02
   221  2.2000000000000D+00  1.2213030735508D-03 -3.7706550363343D-02
   222  2.2100000000000D+00  1.6210566832194D-03 -3.5209112811937D-02
   223  2.2200000000000D+00  1.9465364323995D-03 -3.2742642788085D-02
   224  2.2300000000000D+00  2.2036652583794D-03 -3.0322056017038D-02
   225  2.2400000000000D+00  2.3982703866889D-03 -2.7960668797125D-02
   226  2.2500000000000D+00  2.5360632733037D-03 -2.5670227297393D-02
   227  2.2600000000000D+00  2.6226198205962D-03 -2.3460940130805D-02
   228  2.2700000000000D+00  2.6633621732675D-03 -2.1341519191143D-02
   229  2.2800000000000D+00  2.6635415871705D-03 -1.9319226490877D-02
   230  2.2900000000000D+00  2.6282225996505D-03 -1.7399927120888D-02
   231  2.3000000000000D+00  2.5622687169876D-03 -1.5588148946581D-02
   232  2.3100000000000D+00  2.4703294026613D-03 -1.3887147673720D-02
   233  2.3200000000000D+00  2.3568280818281D-03 -1.2298975840775D-02
   234  2.3300000000000D+00  2.2259515843852D-03 -1.0824556673173D-02
   235  2.3400000000000D+00  2.0816406322886D-03 -9.4637610897182D-03
   236  2.3500000000000D+00  1.9275813832230D-03 -8.2154875441519D-03
   237  2.3600000000000D+00  1.7671981739029D-03 -7.0777442333396D-03
   238  2.3700000000000D+00  1.6036471639567D-03 -6.0477329106866D-03
   239  2.3800000000000D+00  1.4398109441317D-03 -5.1219337038923D-03
   240  2.3900000000000D+00  1.2782940795609D-03 -4.2961899851855D-03
   241  2.4000000000000D+00  1.1214194555063D-03 -3.5657935476570D-03
   242  2.4100000000000D+00  9.7122540228964D-04 -2.9255685256467D-03
   243  2.4200000000000D+00  8.2946352414022D-04 -2.3699534599173D-03
   244  2.4300000000000D+00  6.9759724027968D-04 -1.8930825066392D-03
   245  2.4400000000000D+00  5.7680086160213D-04 -1.4888629175111D-03
   246  2.4500000000000D+00  4.6795919248000D-04 -1.1510492419873D-03
   247  2.4600000000000D+00  3.7166777397031D-04 -8.7331570313245D-04
   248  2.4700000000000D+00  2.8823336935624D-04 -6.4932230699791D-04
   249  2.4800000000000D+00  2.1769177949381D-04 -4.7285839618439D-04
   250  2.4900000000000D+00  1.5974681422374D-04 -3.3760032141014D-04
   251  2.5000000000000D+00  1.1383399841616D-04 -2.3746268026628D-04
   252  2.5100000000000D+00  7.8829488257541D-05 -1.6588287481701D-04
   253  2.5200000000000D+00  5.4161437072783D-05 -1.1878691307422D-04
   254  2.5300000000000D+00  3.8654904025600D-05 -9.1538021677535D-05
   255  2.5400000000000D+00  3.1612148617688D-05 -8.1501645330138D-05
   256  2.5500000000000D+00  2.8600696822647D-05 -7.7721459299649D-05
   257  2.5600000000000D+00  2.5870714461329D-05 -7.1497551857321D-05
   258  2.5700000000000D+00  1.8927835127775D-05 -5.2600075149576D-05
   259  2.5800000000000D+00  9.9639020937334D-06 -2.7701637630214D-05
   260  2.5900000000000D+00  1.5902274810352D-06 -4.4111969991306D-06
   261  2.6000000000000D+00 -2.1903200827214D-06  6.1855660490690D-06
   262  2.6100000000000D+00 -2.3646033366832D-06  6.6872267746658D-06
   263  2.6200000000000D+00 -7.0157426274541D-07  1.9858721004225D-06
   264  2.6300000000000D+00  3.9842242330668D-07 -1.1279494161342D-06
   265  2.6400000000000D+00  5.5757321288197D-07 -1.5803000326675D-06
   266  2.6500000000000D+00  2.4119250208948D-07 -6.8425117323547D-07
   267  2.6600000000000D+00 -3.8830490763514D-08  1.0735869930630D-07
   268  2.6700000000000D+00 -7.1600430630364D-08  1.9796116276413D-07
   269  2.6800000000000D+00 -4.1947644572944D-08  1.1597701887780D-07
   270  2.6900000000000D+00  0.0000000000000D+00  0.0000000000000D+00
   271  2.7000000000000D+00  0.0000000000000D+00  0.0000000000000D+00
   272  2.7100000000000D+00  0.0000000000000D+00  0.0000000000000D+00
   273  2.7200000000000D+00  0.0000000000000D+00  0.0000000000000D+00
   274  2.7300000000000D+00  0.0000000000000D+00  0.0000000000000D+00
   275  2.7400000000000D+00  0.0000000000000D+00  0.0000000000000D+00
   276  2.7500000000000D+00  0.0000000000000D+00  0.0000000000000D+00
   277  2.7600000000000D+00  0.0000000000000D+00  0.0000000000000D+00
   278  2.7700000000000D+00  0.0000000000000D+00  0.0000000000000D+00
   279  2.7800000000000D+00  0.0000000000000D+00  0.0000000000000D+00
   280  2.7900000000000D+00  0.0000000000000D+00  0.0000000000000D+00
   281  2.8000000000000D+00  0.0000000000000D+00  0.0000000000000D+00
   282  2.8100000000000D+00  0.0000000000000D+00  0.0000000000000D+00
   283  2.8200000000000D+00  0.0000000000000D+00  0.0000000000000D+00
   284  2.8300000000000D+00  0.0000000000000D+00  0.0000000000000D+00
   285  2.8400000000000D+00  0.0000000000000D+00  0.0000000000000D+00
   286  2.8500000000000D+00  0.0000000000000D+00  0.0000000000000D+00
   287  2.8600000000000D+00  0.0000000000000D+00  0.0000000000000D+00
   288  2.8700000000000D+00  0.0000000000000D+00  0.0000000000000D+00
   289  2.8800000000000D+00  0.0000000000000D+00  0.0000000000000D+00
   290  2.8900000000000D+00  0.0000000000000D+00  0.0000000000000D+00
   291  2.9000000000000D+00  0.0000000000000D+00  0.0000000000000D+00
   292  2.9100000000000D+00  0.0000000000000D+00  0.0000000000000D+00
   293  2.9200000000000D+00  0.0000000000000D+00  0.0000000000000D+00
   294  2.9300000000000D+00  0.0000000000000D+00  0.0000000000000D+00
   295  2.9400000000000D+00  0.0000000000000D+00  0.0000000000000D+00
   296  2.9500000000000D+00  0.0000000000000D+00  0.0000000000000D+00
   297  2.9600000000000D+00  0.0000000000000D+00  0.0000000000000D+00
   298  2.9700000000000D+00  0.0000000000000D+00  0.0000000000000D+00
   299  2.9800000000000D+00  0.0000000000000D+00  0.0000000000000D+00
   300  2.9900000000000D+00  0.0000000000000D+00  0.0000000000000D+00
   301  3.0000000000000D+00  0.0000000000000D+00  0.0000000000000D+00
   302  3.0100000000000D+00  0.0000000000000D+00  0.0000000000000D+00
   303  3.0200000000000D+00  0.0000000000000D+00  0.0000000000000D+00
   304  3.0300000000000D+00  0.0000000000000D+00  0.0000000000000D+00
   305  3.0400000000000D+00  0.0000000000000D+00  0.0000000000000D+00
   306  3.0500000000000D+00  0.0000000000000D+00  0.0000000000000D+00
   307  3.0600000000000D+00  0.0000000000000D+00  0.0000000000000D+00
   308  3.0700000000000D+00  0.0000000000000D+00  0.0000000000000D+00
   309  3.0800000000000D+00  0.0000000000000D+00  0.0000000000000D+00
   310  3.0900000000000D+00  0.0000000000000D+00  0.0000000000000D+00
   311  3.1000000000000D+00  0.0000000000000D+00  0.0000000000000D+00
   312  3.1100000000000D+00  0.0000000000000D+00  0.0000000000000D+00
   313  3.1200000000000D+00  0.0000000000000D+00  0.0000000000000D+00
   314  3.1300000000000D+00  0.0000000000000D+00  0.0000000000000D+00
   315  3.1400000000000D+00  0.0000000000000D+00  0.0000000000000D+00
   316  3.1500000000000D+00  0.0000000000000D+00  0.0000000000000D+00
   317  3.1600000000000D+00  0.0000000000000D+00  0.0000000000000D+00
   318  3.1700000000000D+00  0.0000000000000D+00  0.0000000000000D+00
   319  3.1800000000000D+00  0.0000000000000D+00  0.0000000000000D+00
   320  3.1900000000000D+00  0.0000000000000D+00  0.0000000000000D+00
   321  3.2000000000000D+00  0.0000000000000D+00  0.0000000000000D+00
   322  3.2100000000000D+00  0.0000000000000D+00  0.0000000000000D+00
   323  3.2200000000000D+00  0.0000000000000D+00  0.0000000000000D+00
   324  3.2300000000000D+00  0.0000000000000D+00  0.0000000000000D+00
   325  3.2400000000000D+00  0.0000000000000D+00  0.0000000000000D+00
   326  3.2500000000000D+00  0.0000000000000D+00  0.0000000000000D+00
   327  3.2600000000000D+00  0.0000000000000D+00  0.0000000000000D+00
   328  3.2700000000000D+00  0.0000000000000D+00  0.0000000000000D+00
   329  3.2800000000000D+00  0.0000000000000D+00  0.0000000000000D+00
   330  3.2900000000000D+00  0.0000000000000D+00  0.0000000000000D+00
   331  3.3000000000000D+00  0.0000000000000D+00  0.0000000000000D+00
   332  3.3100000000000D+00  0.0000000000000D+00  0.0000000000000D+00
   333  3.3200000000000D+00  0.0000000000000D+00  0.0000000000000D+00
   334  3.3300000000000D+00  0.0000000000000D+00  0.0000000000000D+00
   335  3.3400000000000D+00  0.0000000000000D+00  0.0000000000000D+00
   336  3.3500000000000D+00  0.0000000000000D+00  0.0000000000000D+00
   337  3.3600000000000D+00  0.0000000000000D+00  0.0000000000000D+00
   338  3.3700000000000D+00  0.0000000000000D+00  0.0000000000000D+00
   339  3.3800000000000D+00  0.0000000000000D+00  0.0000000000000D+00
   340  3.3900000000000D+00  0.0000000000000D+00  0.0000000000000D+00
   341  3.4000000000000D+00  0.0000000000000D+00  0.0000000000000D+00
   342  3.4100000000000D+00  0.0000000000000D+00  0.0000000000000D+00
   343  3.4200000000000D+00  0.0000000000000D+00  0.0000000000000D+00
   344  3.4300000000000D+00  0.0000000000000D+00  0.0000000000000D+00
   345  3.4400000000000D+00  0.0000000000000D+00  0.0000000000000D+00
   346  3.4500000000000D+00  0.0000000000000D+00  0.0000000000000D+00
   347  3.4600000000000D+00  0.0000000000000D+00  0.0000000000000D+00
   348  3.4700000000000D+00  0.0000000000000D+00  0.0000000000000D+00
   349  3.4800000000000D+00  0.0000000000000D+00  0.0000000000000D+00
   350  3.4900000000000D+00  0.0000000000000D+00  0.0000000000000D+00
   351  3.5000000000000D+00  0.0000000000000D+00  0.0000000000000D+00
   352  3.5100000000000D+00  0.0000000000000D+00  0.0000000000000D+00
   353  3.5200000000000D+00  0.0000000000000D+00  0.0000000000000D+00
   354  3.5300000000000D+00  0.0000000000000D+00  0.0000000000000D+00
   355  3.5400000000000D+00  0.0000000000000D+00  0.0000000000000D+00
   356  3.5500000000000D+00  0.0000000000000D+00  0.0000000000000D+00
   357  3.5600000000000D+00  0.0000000000000D+00  0.0000000000000D+00
   358  3.5700000000000D+00  0.0000000000000D+00  0.0000000000000D+00
   359  3.5800000000000D+00  0.0000000000000D+00  0.0000000000000D+00
   360  3.5900000000000D+00  0.0000000000000D+00  0.0000000000000D+00
   361  3.6000000000000D+00  0.0000000000000D+00  0.0000000000000D+00
   362  3.6100000000000D+00  0.0000000000000D+00  0.0000000000000D+00
   363  3.6200000000000D+00  0.0000000000000D+00  0.0000000000000D+00
   364  3.6300000000000D+00  0.0000000000000D+00  0.0000000000000D+00
   365  3.6400000000000D+00  0.0000000000000D+00  0.0000000000000D+00
   366  3.6500000000000D+00  0.0000000000000D+00  0.0000000000000D+00
   367  3.6600000000000D+00  0.0000000000000D+00  0.0000000000000D+00
   368  3.6700000000000D+00  0.0000000000000D+00  0.0000000000000D+00
   369  3.6800000000000D+00  0.0000000000000D+00  0.0000000000000D+00
   370  3.6900000000000D+00  0.0000000000000D+00  0.0000000000000D+00
   371  3.7000000000000D+00  0.0000000000000D+00  0.0000000000000D+00
   372  3.7100000000000D+00  0.0000000000000D+00  0.0000000000000D+00
   373  3.7200000000000D+00  0.0000000000000D+00  0.0000000000000D+00
   374  3.7300000000000D+00  0.0000000000000D+00  0.0000000000000D+00
   375  3.7400000000000D+00  0.0000000000000D+00  0.0000000000000D+00
   376  3.7500000000000D+00  0.0000000000000D+00  0.0000000000000D+00
   377  3.7600000000000D+00  0.0000000000000D+00  0.0000000000000D+00
   378  3.7700000000000D+00  0.0000000000000D+00  0.0000000000000D+00
   379  3.7800000000000D+00  0.0000000000000D+00  0.0000000000000D+00
   380  3.7900000000000D+00  0.0000000000000D+00  0.0000000000000D+00
   381  3.8000000000000D+00  0.0000000000000D+00  0.0000000000000D+00
   382  3.8100000000000D+00  0.0000000000000D+00  0.0000000000000D+00
   383  3.8200000000000D+00  0.0000000000000D+00  0.0000000000000D+00
   384  3.8300000000000D+00  0.0000000000000D+00  0.0000000000000D+00
   385  3.8400000000000D+00  0.0000000000000D+00  0.0000000000000D+00
   386  3.8500000000000D+00  0.0000000000000D+00  0.0000000000000D+00
   387  3.8600000000000D+00  0.0000000000000D+00  0.0000000000000D+00
   388  3.8700000000000D+00  0.0000000000000D+00  0.0000000000000D+00
   389  3.8800000000000D+00  0.0000000000000D+00  0.0000000000000D+00
   390  3.8900000000000D+00  0.0000000000000D+00  0.0000000000000D+00
   391  3.9000000000000D+00  0.0000000000000D+00  0.0000000000000D+00
   392  3.9100000000000D+00  0.0000000000000D+00  0.0000000000000D+00
   393  3.9200000000000D+00  0.0000000000000D+00  0.0000000000000D+00
   394  3.9300000000000D+00  0.0000000000000D+00  0.0000000000000D+00
   395  3.9400000000000D+00  0.0000000000000D+00  0.0000000000000D+00
   396  3.9500000000000D+00  0.0000000000000D+00  0.0000000000000D+00
   397  3.9600000000000D+00  0.0000000000000D+00  0.0000000000000D+00
   398  3.9700000000000D+00  0.0000000000000D+00  0.0000000000000D+00
   399  3.9800000000000D+00  0.0000000000000D+00  0.0000000000000D+00
   400  3.9900000000000D+00  0.0000000000000D+00  0.0000000000000D+00
   401  4.0000000000000D+00  0.0000000000000D+00  0.0000000000000D+00
   402  4.0100000000000D+00  0.0000000000000D+00  0.0000000000000D+00
   403  4.0200000000000D+00  0.0000000000000D+00  0.0000000000000D+00
   404  4.0300000000000D+00  0.0000000000000D+00  0.0000000000000D+00
   405  4.0400000000000D+00  0.0000000000000D+00  0.0000000000000D+00
   406  4.0500000000000D+00  0.0000000000000D+00  0.0000000000000D+00
   407  4.0600000000000D+00  0.0000000000000D+00  0.0000000000000D+00
   408  4.0700000000000D+00  0.0000000000000D+00  0.0000000000000D+00
   409  4.0800000000000D+00  0.0000000000000D+00  0.0000000000000D+00
   410  4.0900000000000D+00  0.0000000000000D+00  0.0000000000000D+00
   411  4.1000000000000D+00  0.0000000000000D+00  0.0000000000000D+00
   412  4.1100000000000D+00  0.0000000000000D+00  0.0000000000000D+00
   413  4.1200000000000D+00  0.0000000000000D+00  0.0000000000000D+00
   414  4.1300000000000D+00  0.0000000000000D+00  0.0000000000000D+00
   415  4.1400000000000D+00  0.0000000000000D+00  0.0000000000000D+00
   416  4.1500000000000D+00  0.0000000000000D+00  0.0000000000000D+00
   417  4.1600000000000D+00  0.0000000000000D+00  0.0000000000000D+00
   418  4.1700000000000D+00  0.0000000000000D+00  0.0000000000000D+00
   419  4.1800000000000D+00  0.0000000000000D+00  0.0000000000000D+00
   420  4.1900000000000D+00  0.0000000000000D+00  0.0000000000000D+00
   421  4.2000000000000D+00  0.0000000000000D+00  0.0000000000000D+00
   422  4.2100000000000D+00  0.0000000000000D+00  0.0000000000000D+00