Cu    ONCVPSP-3.3.1  r_core=   1.91598   1.87081   1.89326
     29.0000     19.0000      210904    zatom,zion,pspd
     8      11   2     4   600     0    pspcod,pspxc,lmax,lloc,mmax,r2well
  5.99000000  0.00000000  0.00000000    rchrg fchrg qchrg
     2     2     2     0    nproj
     3     1           extension_switch
     3     3     0    nprojso
   0                        -3.3050571263074D+00 -9.0298242943299D-02
     1  0.0000000000000D+00 -7.3195893790512D-12  2.3836463358684D-10
     2  1.0000000000000D-02  4.3674938344256D-02  2.8830388470028D-02
     3  2.0000000000000D-02  8.7299839164811D-02  5.7601293714645D-02
     4  3.0000000000000D-02  1.3082475679285D-01  8.6252937236221D-02
     5  4.0000000000000D-02  1.7419992896383D-01  1.1472495577234D-01
     6  5.0000000000000D-02  2.1737586775785D-01  1.4295612330164D-01
     7  6.0000000000000D-02  2.6030344963095D-01  1.7088409014534D-01
     8  7.0000000000000D-02  3.0293400424311D-01  1.9844514458104D-01
     9  8.0000000000000D-02  3.4521940179592D-01  2.2557400214708D-01
    10  9.0000000000000D-02  3.8711213860176D-01  2.5220362752156D-01
    11  1.0000000000000D-01  4.2856542061733D-01  2.7826509351328D-01
    12  1.1000000000000D-01  4.6953324468632D-01  3.0368748130533D-01
    13  1.2000000000000D-01  5.0997047724989D-01  3.2839782564868D-01
    14  1.3000000000000D-01  5.4983293029868D-01  3.5232110821851D-01
    15  1.4000000000000D-01  5.8907743435631D-01  3.7538030182259D-01
    16  1.5000000000000D-01  6.2766190830178D-01  3.9749646759518D-01
    17  1.6000000000000D-01  6.6554542585665D-01  4.1858890672558D-01
    18  1.7000000000000D-01  7.0268827858196D-01  4.3857536766426D-01
    19  1.8000000000000D-01  7.3905203524995D-01  4.5737230912491D-01
    20  1.9000000000000D-01  7.7459959747582D-01  4.7489521856597D-01
    21  2.0000000000000D-01  8.0929525151580D-01  4.9105898519440D-01
    22  2.1000000000000D-01  8.4310471615870D-01  5.0577832589407D-01
    23  2.2000000000000D-01  8.7599518665904D-01  5.1896826184773D-01
    24  2.3000000000000D-01  9.0793537468097D-01  5.3054464299971D-01
    25  2.4000000000000D-01  9.3889554424267D-01  5.4042471690402D-01
    26  2.5000000000000D-01  9.6884754367119D-01  5.4852773792371D-01
    27  2.6000000000000D-01  9.9776483359720D-01  5.5477561219820D-01
    28  2.7000000000000D-01  1.0256225110380D+00  5.5909357328164D-01
    29  2.8000000000000D-01  1.0523973296354D+00  5.6141088288186D-01
    30  2.9000000000000D-01  1.0780677161308D+00  5.6166155070153D-01
    31  3.0000000000000D-01  1.1026137831784D+00  5.5978506700383D-01
    32  3.1000000000000D-01  1.1260173386075D+00  5.5572714120066D-01
    33  3.2000000000000D-01  1.1482618912637D+00  5.4944043949307D-01
    34  3.3000000000000D-01  1.1693326535649D+00  5.4088531438760D-01
    35  3.4000000000000D-01  1.1892165409224D+00  5.3003051876667D-01
    36  3.5000000000000D-01  1.2079021681844D+00  5.1685389711424D-01
    37  3.6000000000000D-01  1.2253798432654D+00  5.0134304648490D-01
    38  3.7000000000000D-01  1.2416415581323D+00  4.8349593986185D-01
    39  3.8000000000000D-01  1.2566809773193D+00  4.6332150467300D-01
    40  3.9000000000000D-01  1.2704934241485D+00  4.4084014942856D-01
    41  4.0000000000000D-01  1.2830758648298D+00  4.1608423170246D-01
    42  4.1000000000000D-01  1.2944268906153D+00  3.8909846100827D-01
    43  4.2000000000000D-01  1.3045466981790D+00  3.5994023051029D-01
    44  4.3000000000000D-01  1.3134370683879D+00  3.2867987196371D-01
    45  4.4000000000000D-01  1.3211013436245D+00  2.9540082878929D-01
    46  4.5000000000000D-01  1.3275444038146D+00  2.6019974275555D-01
    47  4.6000000000000D-01  1.3327726413022D+00  2.2318645035804D-01
    48  4.7000000000000D-01  1.3367939347071D+00  1.8448388565143D-01
    49  4.8000000000000D-01  1.3396176218866D+00  1.4422788699479D-01
    50  4.9000000000000D-01  1.3412544721122D+00  1.0256690591278D-01
    51  5.0000000000000D-01  1.3417166575587D+00  5.9661617048220D-02
    52  5.1000000000000D-01  1.3410177241894D+00  1.5684428976469D-02
    53  5.2000000000000D-01  1.3391725621073D+00 -2.9181103533000D-02
    54  5.3000000000000D-01  1.3361973754267D+00 -7.4740964398941D-02
    55  5.4000000000000D-01  1.3321096517068D+00 -1.2079145601592D-01
    56  5.5000000000000D-01  1.3269281309718D+00 -1.6712007088352D-01
    57  5.6000000000000D-01  1.3206727743286D+00 -2.1350645119715D-01
    58  5.7000000000000D-01  1.3133647321797D+00 -2.5972343172190D-01
    59  5.8000000000000D-01  1.3050263120122D+00 -3.0553816049482D-01
    60  5.9000000000000D-01  1.2956809457345D+00 -3.5071329115889D-01
    61  6.0000000000000D-01  1.2853531565152D+00 -3.9500824002236D-01
    62  6.1000000000000D-01  1.2740685250713D+00 -4.3818050027653D-01
    63  6.2000000000000D-01  1.2618536553402D+00 -4.7998700519146D-01
    64  6.3000000000000D-01  1.2487361394597D+00 -5.2018553155150D-01
    65  6.4000000000000D-01  1.2347445219750D+00 -5.5853613409872D-01
    66  6.5000000000000D-01  1.2199082631823D+00 -5.9480260132156D-01
    67  6.6000000000000D-01  1.2042577015158D+00 -6.2875392256793D-01
    68  6.7000000000000D-01  1.1878240148786D+00 -6.6016575617946D-01
    69  6.8000000000000D-01  1.1706391808205D+00 -6.8882188813735D-01
    70  6.9000000000000D-01  1.1527359354600D+00 -7.1451567058518D-01
    71  7.0000000000000D-01  1.1341477310558D+00 -7.3705142955439D-01
    72  7.1000000000000D-01  1.1149086921302D+00 -7.5624583125953D-01
    73  7.2000000000000D-01  1.0950535700570D+00 -7.7192919646046D-01
    74  7.3000000000000D-01  1.0746176960316D+00 -7.8394675260111D-01
    75  7.4000000000000D-01  1.0536369323487D+00 -7.9215981373481D-01
    76  7.5000000000000D-01  1.0321476219253D+00 -7.9644687862696D-01
    77  7.6000000000000D-01  1.0101865360177D+00 -7.9670463789020D-01
    78  7.7000000000000D-01  9.8779082009536D-01 -7.9284888155024D-01
    79  7.8000000000000D-01  9.6499793784798D-01 -7.8481529905706D-01
    80  7.9000000000000D-01  9.4184561332148D-01 -7.7256016444640D-01
    81  8.0000000000000D-01  9.1837177119240D-01 -7.5606090011095D-01
    82  8.1000000000000D-01  8.9461447521177D-01 -7.3531651345813D-01
    83  8.2000000000000D-01  8.7061186486734D-01 -7.1034790160319D-01
    84  8.3000000000000D-01  8.4640209033380D-01 -6.8119802016702D-01
    85  8.4000000000000D-01  8.2202324580104D-01 -6.4793191321190D-01
    86  8.5000000000000D-01  7.9751330129193D-01 -6.1063660234529D-01
    87  8.6000000000000D-01  7.7291003310173D-01 -5.6942083404791D-01
    88  8.7000000000000D-01  7.4825095301313D-01 -5.2441468532486D-01
    89  8.8000000000000D-01  7.2357323646103D-01 -4.7576902883531D-01
    90  8.9000000000000D-01  6.9891364984239D-01 -4.2365485971217D-01
    91  9.0000000000000D-01  6.7430847718570D-01 -3.6826248733608D-01
    92  9.1000000000000D-01  6.4979344641395D-01 -3.0980059636409D-01
    93  9.2000000000000D-01  6.2540365545262D-01 -2.4849518232823D-01
    94  9.3000000000000D-01  6.0117349845095D-01 -1.8458836810136D-01
    95  9.4000000000000D-01  5.7713659239994D-01 -1.1833710847121D-01
    96  9.5000000000000D-01  5.5332570444399D-01 -5.0011790958478D-02
    97  9.6000000000000D-01  5.2977268019492D-01  2.0105258144534D-02
    98  9.7000000000000D-01  5.0650837336681D-01  9.1721352761343D-02
    99  9.8000000000000D-01  4.8356257705802D-01  1.6453510057963D-01
   100  9.9000000000000D-01  4.6096395701193D-01  2.3823812006965D-01
   101  1.0000000000000D+00  4.3873998719131D-01  3.1251680932693D-01
   102  1.0100000000000D+00  4.1691688800198D-01  3.8705415462476D-01
   103  1.0200000000000D+00  3.9551956749936D-01  4.6153156619597D-01
   104  1.0300000000000D+00  3.7457156590755D-01  5.3563072848124D-01
   105  1.0400000000000D+00  3.5409500377342D-01  6.0903545190030D-01
   106  1.0500000000000D+00  3.3411053406835D-01  6.8143351312939D-01
   107  1.0600000000000D+00  3.1463729853930D-01  7.5251847087452D-01
   108  1.0700000000000D+00  2.9569288859468D-01  8.2199144426748D-01
   109  1.0800000000000D+00  2.7729331099455D-01  8.8956284122893D-01
   110  1.0900000000000D+00  2.5945295859422D-01  9.5495402447551D-01
   111  1.1000000000000D+00  2.4218458636820D-01  1.0178989032882D+00
   112  1.1100000000000D+00  2.2549929291980D-01  1.0781454396132D+00
   113  1.1200000000000D+00  2.0940650765132D-01  1.1354570577797D+00
   114  1.1300000000000D+00  1.9391398374536D-01  1.1896139477349D+00
   115  1.1400000000000D+00  1.7902779707300D-01  1.2404142526173D+00
   116  1.1500000000000D+00  1.6475235112264D-01  1.2876751320753D+00
   117  1.1600000000000D+00  1.5109038799908D-01  1.3312336940089D+00
   118  1.1700000000000D+00  1.3804300551545D-01  1.3709477882036D+00
   119  1.1800000000000D+00  1.2560968036255D-01  1.4066966565002D+00
   120  1.1900000000000D+00  1.1378829731243D-01  1.4383814349769D+00
   121  1.2000000000000D+00  1.0257518436548D-01  1.4659255051540D+00
   122  1.2100000000000D+00  9.1965153718635D-02  1.4892746922804D+00
   123  1.2200000000000D+00  8.1951548407142D-02  1.5083973095949D+00
   124  1.2300000000000D+00  7.2526294422463D-02  1.5232840491337D+00
   125  1.2400000000000D+00  6.3679958077703D-02  1.5339477207897D+00
   126  1.2500000000000D+00  5.5401808366721D-02  1.5404228422160D+00
   127  1.2600000000000D+00  4.7679884026281D-02  1.5427650834813D+00
   128  1.2700000000000D+00  4.0501064970350D-02  1.5410505719255D+00
   129  1.2800000000000D+00  3.3851147752220D-02  1.5353750631980D+00
   130  1.2900000000000D+00  2.7714924678888D-02  1.5258529856280D+00
   131  1.3000000000000D+00  2.2076266163644D-02  1.5126163667090D+00
   132  1.3100000000000D+00  1.6918205901889D-02  1.4958136505487D+00
   133  1.3200000000000D+00  1.2223028423761D-02  1.4756084164085D+00
   134  1.3300000000000D+00  7.9723585542003D-03  1.4521780096925D+00
   135  1.3400000000000D+00  4.1472523164112D-03  1.4257120964574D+00
   136  1.3500000000000D+00  7.2828878380392D-04  1.3964111540212D+00
   137  1.3600000000000D+00 -2.3043376096219D-03  1.3644849105472D+00
   138  1.3700000000000D+00 -4.9707247973813D-03  1.3301507463515D+00
   139  1.3800000000000D+00 -7.2911713498686D-03  1.2936320709488D+00
   140  1.3900000000000D+00 -9.2860857713302D-03  1.2551566891276D+00
   141  1.4000000000000D+00 -1.0975897331385D-02  1.2149551701570D+00
   142  1.4100000000000D+00 -1.2380968886887D-02  1.1732592335982D+00
   143  1.4200000000000D+00 -1.3521512186148D-02  1.1303001656170D+00
   144  1.4300000000000D+00 -1.4417506095081D-02  1.0863072791695D+00
   145  1.4400000000000D+00 -1.5088618161594D-02  1.0415064305926D+00
   146  1.4500000000000D+00 -1.5554129977334D-02  9.9611860640447D-01
   147  1.4600000000000D+00 -1.5832866640881D-02  9.5035859041380D-01
   148  1.4700000000000D+00 -1.5943130771632D-02  9.0443372473329D-01
   149  1.4800000000000D+00 -1.5902641319469D-02  8.5854277336745D-01
   150  1.4900000000000D+00 -1.5728477502133D-02  8.1287489902852D-01
   151  1.5000000000000D+00 -1.5437028145918D-02  7.6760876264198D-01
   152  1.5100000000000D+00 -1.5043946564165D-02  7.2291175091923D-01
   153  1.5200000000000D+00 -1.4564111306345D-02  6.7893934306601D-01
   154  1.5300000000000D+00 -1.4011592714935D-02  6.3583461645677D-01
   155  1.5400000000000D+00 -1.3399625621808D-02  5.9372790239207D-01
   156  1.5500000000000D+00 -1.2740588020543D-02  5.5273658880103D-01
   157  1.5600000000000D+00 -1.2045985914593D-02  5.1296507725357D-01
   158  1.5700000000000D+00 -1.1326444190470D-02  4.7450489144316D-01
   159  1.5800000000000D+00 -1.0591703512911D-02  4.3743493852225D-01
   160  1.5900000000000D+00 -9.8506231331254D-03  4.0182192168123D-01
   161  1.6000000000000D+00 -9.1111894022516D-03  3.6772089912515D-01
   162  1.6100000000000D+00 -8.3805299187156D-03  3.3517598902185D-01
   163  1.6200000000000D+00 -7.6649329182898D-03  3.0422120983308D-01
   164  1.6300000000000D+00 -6.9698719486507D-03  2.7488148045817D-01
   165  1.6400000000000D+00 -6.3000346483454D-03  2.4717359942969D-01
   166  1.6500000000000D+00 -5.6593580944302D-03  2.2110784099533D-01
   167  1.6600000000000D+00 -5.0510625856685D-03  1.9668830049148D-01
   168  1.6700000000000D+00 -4.4776970419435D-03  1.7391516990881D-01
   169  1.6800000000000D+00 -3.9411917971118D-03  1.5278838621797D-01
   170  1.6900000000000D+00 -3.4428823667623D-03  1.3330300466594D-01
   171  1.7000000000000D+00 -2.9835417488773D-03  1.1544609849007D-01
   172  1.7100000000000D+00 -2.5634123253389D-03  9.9194221123952D-02
   173  1.7200000000000D+00 -2.1822294946726D-03  8.4508290339324D-02
   174  1.7300000000000D+00 -1.8392776527272D-03  7.1336581078591D-02
   175  1.7400000000000D+00 -1.5334450828450D-03  5.9617526161335D-02
   176  1.7500000000000D+00 -1.2632716120061D-03  4.9280210861794D-02
   177  1.7600000000000D+00 -1.0270008941031D-03  4.0246170463226D-02
   178  1.7700000000000D+00 -8.2263080984484D-04  3.2430811716271D-02
   179  1.7800000000000D+00 -6.4796327991539D-04  2.5744859455510D-02
   180  1.7900000000000D+00 -5.0065257199601D-04  2.0095764531407D-02
   181  1.8000000000000D+00 -3.7825192460813D-04  1.5389051295786D-02
   182  1.8100000000000D+00 -2.7825781300204D-04  1.1529591771824D-02
   183  1.8200000000000D+00 -1.9815172422666D-04  8.4228028059858D-03
   184  1.8300000000000D+00 -1.3543894343056D-04  5.9757519460822D-03
   185  1.8400000000000D+00 -8.7684046380122D-05  4.0981634070334D-03
   186  1.8500000000000D+00 -5.2539886912638D-05  2.7033720773883D-03
   187  1.8600000000000D+00 -2.7773612762992D-05  1.7091378687736D-03
   188  1.8700000000000D+00 -1.1345252072636D-05  1.0374294449923D-03
   189  1.8800000000000D+00 -1.4250450500811D-06  6.1370944227354D-04
   190  1.8900000000000D+00  4.0269560857125D-06  3.8025856499948D-04
   191  1.9000000000000D+00  6.8303726747092D-06  2.8715543604473D-04
   192  1.9100000000000D+00  7.5050845820452D-06  2.5383304771013D-04
   193  1.9200000000000D+00  5.8464832592518D-06  1.9433855430586D-04
   194  1.9300000000000D+00  2.5846371887225D-06  8.7469770383258D-05
   195  1.9400000000000D+00 -1.5240744586378D-07 -4.9318154430605D-06
   196  1.9500000000000D+00 -7.2285749333835D-07 -2.3465698794010D-05
   197  1.9600000000000D+00 -1.7209390360687D-07 -5.6130720717322D-06
   198  1.9700000000000D+00  1.5611062955433D-07  4.7781818758398D-06
   199  1.9800000000000D+00  1.0893859754123D-07  3.3188234077682D-06
   200  1.9900000000000D+00 -1.1494603861326D-08 -3.8287927645534D-07
   201  2.0000000000000D+00 -1.8161794208036D-08 -6.0495991940180D-07
   202  2.0100000000000D+00  0.0000000000000D+00  0.0000000000000D+00
   203  2.0200000000000D+00  0.0000000000000D+00  0.0000000000000D+00
   204  2.0300000000000D+00  0.0000000000000D+00  0.0000000000000D+00
   205  2.0400000000000D+00  0.0000000000000D+00  0.0000000000000D+00
   206  2.0500000000000D+00  0.0000000000000D+00  0.0000000000000D+00
   207  2.0600000000000D+00  0.0000000000000D+00  0.0000000000000D+00
   208  2.0700000000000D+00  0.0000000000000D+00  0.0000000000000D+00
   209  2.0800000000000D+00  0.0000000000000D+00  0.0000000000000D+00
   210  2.0900000000000D+00  0.0000000000000D+00  0.0000000000000D+00
   211  2.1000000000000D+00  0.0000000000000D+00  0.0000000000000D+00
   212  2.1100000000000D+00  0.0000000000000D+00  0.0000000000000D+00
   213  2.1200000000000D+00  0.0000000000000D+00  0.0000000000000D+00
   214  2.1300000000000D+00  0.0000000000000D+00  0.0000000000000D+00
   215  2.1400000000000D+00  0.0000000000000D+00  0.0000000000000D+00
   216  2.1500000000000D+00  0.0000000000000D+00  0.0000000000000D+00
   217  2.1600000000000D+00  0.0000000000000D+00  0.0000000000000D+00
   218  2.1700000000000D+00  0.0000000000000D+00  0.0000000000000D+00
   219  2.1800000000000D+00  0.0000000000000D+00  0.0000000000000D+00
   220  2.1900000000000D+00  0.0000000000000D+00  0.0000000000000D+00
   221  2.2000000000000D+00  0.0000000000000D+00  0.0000000000000D+00
   222  2.2100000000000D+00  0.0000000000000D+00  0.0000000000000D+00
   223  2.2200000000000D+00  0.0000000000000D+00  0.0000000000000D+00
   224  2.2300000000000D+00  0.0000000000000D+00  0.0000000000000D+00
   225  2.2400000000000D+00  0.0000000000000D+00  0.0000000000000D+00
   226  2.2500000000000D+00  0.0000000000000D+00  0.0000000000000D+00
   227  2.2600000000000D+00  0.0000000000000D+00  0.0000000000000D+00
   228  2.2700000000000D+00  0.0000000000000D+00  0.0000000000000D+00
   229  2.2800000000000D+00  0.0000000000000D+00  0.0000000000000D+00
   230  2.2900000000000D+00  0.0000000000000D+00  0.0000000000000D+00
   231  2.3000000000000D+00  0.0000000000000D+00  0.0000000000000D+00
   232  2.3100000000000D+00  0.0000000000000D+00  0.0000000000000D+00
   233  2.3200000000000D+00  0.0000000000000D+00  0.0000000000000D+00
   234  2.3300000000000D+00  0.0000000000000D+00  0.0000000000000D+00
   235  2.3400000000000D+00  0.0000000000000D+00  0.0000000000000D+00
   236  2.3500000000000D+00  0.0000000000000D+00  0.0000000000000D+00
   237  2.3600000000000D+00  0.0000000000000D+00  0.0000000000000D+00
   238  2.3700000000000D+00  0.0000000000000D+00  0.0000000000000D+00
   239  2.3800000000000D+00  0.0000000000000D+00  0.0000000000000D+00
   240  2.3900000000000D+00  0.0000000000000D+00  0.0000000000000D+00
   241  2.4000000000000D+00  0.0000000000000D+00  0.0000000000000D+00
   242  2.4100000000000D+00  0.0000000000000D+00  0.0000000000000D+00
   243  2.4200000000000D+00  0.0000000000000D+00  0.0000000000000D+00
   244  2.4300000000000D+00  0.0000000000000D+00  0.0000000000000D+00
   245  2.4400000000000D+00  0.0000000000000D+00  0.0000000000000D+00
   246  2.4500000000000D+00  0.0000000000000D+00  0.0000000000000D+00
   247  2.4600000000000D+00  0.0000000000000D+00  0.0000000000000D+00
   248  2.4700000000000D+00  0.0000000000000D+00  0.0000000000000D+00
   249  2.4800000000000D+00  0.0000000000000D+00  0.0000000000000D+00
   250  2.4900000000000D+00  0.0000000000000D+00  0.0000000000000D+00
   251  2.5000000000000D+00  0.0000000000000D+00  0.0000000000000D+00
   252  2.5100000000000D+00  0.0000000000000D+00  0.0000000000000D+00
   253  2.5200000000000D+00  0.0000000000000D+00  0.0000000000000D+00
   254  2.5300000000000D+00  0.0000000000000D+00  0.0000000000000D+00
   255  2.5400000000000D+00  0.0000000000000D+00  0.0000000000000D+00
   256  2.5500000000000D+00  0.0000000000000D+00  0.0000000000000D+00
   257  2.5600000000000D+00  0.0000000000000D+00  0.0000000000000D+00
   258  2.5700000000000D+00  0.0000000000000D+00  0.0000000000000D+00
   259  2.5800000000000D+00  0.0000000000000D+00  0.0000000000000D+00
   260  2.5900000000000D+00  0.0000000000000D+00  0.0000000000000D+00
   261  2.6000000000000D+00  0.0000000000000D+00  0.0000000000000D+00
   262  2.6100000000000D+00  0.0000000000000D+00  0.0000000000000D+00
   263  2.6200000000000D+00  0.0000000000000D+00  0.0000000000000D+00
   264  2.6300000000000D+00  0.0000000000000D+00  0.0000000000000D+00
   265  2.6400000000000D+00  0.0000000000000D+00  0.0000000000000D+00
   266  2.6500000000000D+00  0.0000000000000D+00  0.0000000000000D+00
   267  2.6600000000000D+00  0.0000000000000D+00  0.0000000000000D+00
   268  2.6700000000000D+00  0.0000000000000D+00  0.0000000000000D+00
   269  2.6800000000000D+00  0.0000000000000D+00  0.0000000000000D+00
   270  2.6900000000000D+00  0.0000000000000D+00  0.0000000000000D+00
   271  2.7000000000000D+00  0.0000000000000D+00  0.0000000000000D+00
   272  2.7100000000000D+00  0.0000000000000D+00  0.0000000000000D+00
   273  2.7200000000000D+00  0.0000000000000D+00  0.0000000000000D+00
   274  2.7300000000000D+00  0.0000000000000D+00  0.0000000000000D+00
   275  2.7400000000000D+00  0.0000000000000D+00  0.0000000000000D+00
   276  2.7500000000000D+00  0.0000000000000D+00  0.0000000000000D+00
   277  2.7600000000000D+00  0.0000000000000D+00  0.0000000000000D+00
   278  2.7700000000000D+00  0.0000000000000D+00  0.0000000000000D+00
   279  2.7800000000000D+00  0.0000000000000D+00  0.0000000000000D+00
   280  2.7900000000000D+00  0.0000000000000D+00  0.0000000000000D+00
   281  2.8000000000000D+00  0.0000000000000D+00  0.0000000000000D+00
   282  2.8100000000000D+00  0.0000000000000D+00  0.0000000000000D+00
   283  2.8200000000000D+00  0.0000000000000D+00  0.0000000000000D+00
   284  2.8300000000000D+00  0.0000000000000D+00  0.0000000000000D+00
   285  2.8400000000000D+00  0.0000000000000D+00  0.0000000000000D+00
   286  2.8500000000000D+00  0.0000000000000D+00  0.0000000000000D+00
   287  2.8600000000000D+00  0.0000000000000D+00  0.0000000000000D+00
   288  2.8700000000000D+00  0.0000000000000D+00  0.0000000000000D+00
   289  2.8800000000000D+00  0.0000000000000D+00  0.0000000000000D+00
   290  2.8900000000000D+00  0.0000000000000D+00  0.0000000000000D+00
   291  2.9000000000000D+00  0.0000000000000D+00  0.0000000000000D+00
   292  2.9100000000000D+00  0.0000000000000D+00  0.0000000000000D+00
   293  2.9200000000000D+00  0.0000000000000D+00  0.0000000000000D+00
   294  2.9300000000000D+00  0.0000000000000D+00  0.0000000000000D+00
   295  2.9400000000000D+00  0.0000000000000D+00  0.0000000000000D+00
   296  2.9500000000000D+00  0.0000000000000D+00  0.0000000000000D+00
   297  2.9600000000000D+00  0.0000000000000D+00  0.0000000000000D+00
   298  2.9700000000000D+00  0.0000000000000D+00  0.0000000000000D+00
   299  2.9800000000000D+00  0.0000000000000D+00  0.0000000000000D+00
   300  2.9900000000000D+00  0.0000000000000D+00  0.0000000000000D+00
   301  3.0000000000000D+00  0.0000000000000D+00  0.0000000000000D+00
   302  3.0100000000000D+00  0.0000000000000D+00  0.0000000000000D+00
   303  3.0200000000000D+00  0.0000000000000D+00  0.0000000000000D+00
   304  3.0300000000000D+00  0.0000000000000D+00  0.0000000000000D+00
   305  3.0400000000000D+00  0.0000000000000D+00  0.0000000000000D+00
   306  3.0500000000000D+00  0.0000000000000D+00  0.0000000000000D+00
   307  3.0600000000000D+00  0.0000000000000D+00  0.0000000000000D+00
   308  3.0700000000000D+00  0.0000000000000D+00  0.0000000000000D+00
   309  3.0800000000000D+00  0.0000000000000D+00  0.0000000000000D+00
   310  3.0900000000000D+00  0.0000000000000D+00  0.0000000000000D+00
   311  3.1000000000000D+00  0.0000000000000D+00  0.0000000000000D+00
   312  3.1100000000000D+00  0.0000000000000D+00  0.0000000000000D+00
   313  3.1200000000000D+00  0.0000000000000D+00  0.0000000000000D+00
   314  3.1300000000000D+00  0.0000000000000D+00  0.0000000000000D+00
   315  3.1400000000000D+00  0.0000000000000D+00  0.0000000000000D+00
   316  3.1500000000000D+00  0.0000000000000D+00  0.0000000000000D+00
   317  3.1600000000000D+00  0.0000000000000D+00  0.0000000000000D+00
   318  3.1700000000000D+00  0.0000000000000D+00  0.0000000000000D+00
   319  3.1800000000000D+00  0.0000000000000D+00  0.0000000000000D+00
   320  3.1900000000000D+00  0.0000000000000D+00  0.0000000000000D+00
   321  3.2000000000000D+00  0.0000000000000D+00  0.0000000000000D+00
   322  3.2100000000000D+00  0.0000000000000D+00  0.0000000000000D+00
   323  3.2200000000000D+00  0.0000000000000D+00  0.0000000000000D+00
   324  3.2300000000000D+00  0.0000000000000D+00  0.0000000000000D+00
   325  3.2400000000000D+00  0.0000000000000D+00  0.0000000000000D+00
   326  3.2500000000000D+00  0.0000000000000D+00  0.0000000000000D+00
   327  3.2600000000000D+00  0.0000000000000D+00  0.0000000000000D+00
   328  3.2700000000000D+00  0.0000000000000D+00  0.0000000000000D+00
   329  3.2800000000000D+00  0.0000000000000D+00  0.0000000000000D+00
   330  3.2900000000000D+00  0.0000000000000D+00  0.0000000000000D+00
   331  3.3000000000000D+00  0.0000000000000D+00  0.0000000000000D+00
   332  3.3100000000000D+00  0.0000000000000D+00  0.0000000000000D+00
   333  3.3200000000000D+00  0.0000000000000D+00  0.0000000000000D+00
   334  3.3300000000000D+00  0.0000000000000D+00  0.0000000000000D+00
   335  3.3400000000000D+00  0.0000000000000D+00  0.0000000000000D+00
   336  3.3500000000000D+00  0.0000000000000D+00  0.0000000000000D+00
   337  3.3600000000000D+00  0.0000000000000D+00  0.0000000000000D+00
   338  3.3700000000000D+00  0.0000000000000D+00  0.0000000000000D+00
   339  3.3800000000000D+00  0.0000000000000D+00  0.0000000000000D+00
   340  3.3900000000000D+00  0.0000000000000D+00  0.0000000000000D+00
   341  3.4000000000000D+00  0.0000000000000D+00  0.0000000000000D+00
   342  3.4100000000000D+00  0.0000000000000D+00  0.0000000000000D+00
   343  3.4200000000000D+00  0.0000000000000D+00  0.0000000000000D+00
   344  3.4300000000000D+00  0.0000000000000D+00  0.0000000000000D+00
   345  3.4400000000000D+00  0.0000000000000D+00  0.0000000000000D+00
   346  3.4500000000000D+00  0.0000000000000D+00  0.0000000000000D+00
   347  3.4600000000000D+00  0.0000000000000D+00  0.0000000000000D+00
   348  3.4700000000000D+00  0.0000000000000D+00  0.0000000000000D+00
   349  3.4800000000000D+00  0.0000000000000D+00  0.0000000000000D+00
   350  3.4900000000000D+00  0.0000000000000D+00  0.0000000000000D+00
   351  3.5000000000000D+00  0.0000000000000D+00  0.0000000000000D+00
   352  3.5100000000000D+00  0.0000000000000D+00  0.0000000000000D+00
   353  3.5200000000000D+00  0.0000000000000D+00  0.0000000000000D+00
   354  3.5300000000000D+00  0.0000000000000D+00  0.0000000000000D+00
   355  3.5400000000000D+00  0.0000000000000D+00  0.0000000000000D+00
   356  3.5500000000000D+00  0.0000000000000D+00  0.0000000000000D+00
   357  3.5600000000000D+00  0.0000000000000D+00  0.0000000000000D+00
   358  3.5700000000000D+00  0.0000000000000D+00  0.0000000000000D+00
   359  3.5800000000000D+00  0.0000000000000D+00  0.0000000000000D+00
   360  3.5900000000000D+00  0.0000000000000D+00  0.0000000000000D+00
   361  3.6000000000000D+00  0.0000000000000D+00  0.0000000000000D+00
   362  3.6100000000000D+00  0.0000000000000D+00  0.0000000000000D+00
   363  3.6200000000000D+00  0.0000000000000D+00  0.0000000000000D+00
   364  3.6300000000000D+00  0.0000000000000D+00  0.0000000000000D+00
   365  3.6400000000000D+00  0.0000000000000D+00  0.0000000000000D+00
   366  3.6500000000000D+00  0.0000000000000D+00  0.0000000000000D+00
   367  3.6600000000000D+00  0.0000000000000D+00  0.0000000000000D+00
   368  3.6700000000000D+00  0.0000000000000D+00  0.0000000000000D+00
   369  3.6800000000000D+00  0.0000000000000D+00  0.0000000000000D+00
   370  3.6900000000000D+00  0.0000000000000D+00  0.0000000000000D+00
   371  3.7000000000000D+00  0.0000000000000D+00  0.0000000000000D+00
   372  3.7100000000000D+00  0.0000000000000D+00  0.0000000000000D+00
   373  3.7200000000000D+00  0.0000000000000D+00  0.0000000000000D+00
   374  3.7300000000000D+00  0.0000000000000D+00  0.0000000000000D+00
   375  3.7400000000000D+00  0.0000000000000D+00  0.0000000000000D+00
   376  3.7500000000000D+00  0.0000000000000D+00  0.0000000000000D+00
   377  3.7600000000000D+00  0.0000000000000D+00  0.0000000000000D+00
   378  3.7700000000000D+00  0.0000000000000D+00  0.0000000000000D+00
   379  3.7800000000000D+00  0.0000000000000D+00  0.0000000000000D+00
   380  3.7900000000000D+00  0.0000000000000D+00  0.0000000000000D+00
   381  3.8000000000000D+00  0.0000000000000D+00  0.0000000000000D+00
   382  3.8100000000000D+00  0.0000000000000D+00  0.0000000000000D+00
   383  3.8200000000000D+00  0.0000000000000D+00  0.0000000000000D+00
   384  3.8300000000000D+00  0.0000000000000D+00  0.0000000000000D+00
   385  3.8400000000000D+00  0.0000000000000D+00  0.0000000000000D+00
   386  3.8500000000000D+00  0.0000000000000D+00  0.0000000000000D+00
   387  3.8600000000000D+00  0.0000000000000D+00  0.0000000000000D+00
   388  3.8700000000000D+00  0.0000000000000D+00  0.0000000000000D+00
   389  3.8800000000000D+00  0.0000000000000D+00  0.0000000000000D+00
   390  3.8900000000000D+00  0.0000000000000D+00  0.0000000000000D+00
   391  3.9000000000000D+00  0.0000000000000D+00  0.0000000000000D+00
   392  3.9100000000000D+00  0.0000000000000D+00  0.0000000000000D+00
   393  3.9200000000000D+00  0.0000000000000D+00  0.0000000000000D+00
   394  3.9300000000000D+00  0.0000000000000D+00  0.0000000000000D+00
   395  3.9400000000000D+00  0.0000000000000D+00  0.0000000000000D+00
   396  3.9500000000000D+00  0.0000000000000D+00  0.0000000000000D+00
   397  3.9600000000000D+00  0.0000000000000D+00  0.0000000000000D+00
   398  3.9700000000000D+00  0.0000000000000D+00  0.0000000000000D+00
   399  3.9800000000000D+00  0.0000000000000D+00  0.0000000000000D+00
   400  3.9900000000000D+00  0.0000000000000D+00  0.0000000000000D+00
   401  4.0000000000000D+00  0.0000000000000D+00  0.0000000000000D+00
   402  4.0100000000000D+00  0.0000000000000D+00  0.0000000000000D+00
   403  4.0200000000000D+00  0.0000000000000D+00  0.0000000000000D+00
   404  4.0300000000000D+00  0.0000000000000D+00  0.0000000000000D+00
   405  4.0400000000000D+00  0.0000000000000D+00  0.0000000000000D+00
   406  4.0500000000000D+00  0.0000000000000D+00  0.0000000000000D+00
   407  4.0600000000000D+00  0.0000000000000D+00  0.0000000000000D+00
   408  4.0700000000000D+00  0.0000000000000D+00  0.0000000000000D+00
   409  4.0800000000000D+00  0.0000000000000D+00  0.0000000000000D+00
   410  4.0900000000000D+00  0.0000000000000D+00  0.0000000000000D+00
   411  4.1000000000000D+00  0.0000000000000D+00  0.0000000000000D+00
   412  4.1100000000000D+00  0.0000000000000D+00  0.0000000000000D+00
   413  4.1200000000000D+00  0.0000000000000D+00  0.0000000000000D+00
   414  4.1300000000000D+00  0.0000000000000D+00  0.0000000000000D+00
   415  4.1400000000000D+00  0.0000000000000D+00  0.0000000000000D+00
   416  4.1500000000000D+00  0.0000000000000D+00  0.0000000000000D+00
   417  4.1600000000000D+00  0.0000000000000D+00  0.0000000000000D+00
   418  4.1700000000000D+00  0.0000000000000D+00  0.0000000000000D+00
   419  4.1800000000000D+00  0.0000000000000D+00  0.0000000000000D+00
   420  4.1900000000000D+00  0.0000000000000D+00  0.0000000000000D+00
   421  4.2000000000000D+00  0.0000000000000D+00  0.0000000000000D+00
   422  4.2100000000000D+00  0.0000000000000D+00  0.0000000000000D+00