Cu    ONCVPSP-3.3.1  r_core=   1.91598   1.87081   1.89326
     29.0000     19.0000      210904    zatom,zion,pspd
     8      11   2     4   600     0    pspcod,pspxc,lmax,lloc,mmax,r2well
  5.99000000  0.00000000  0.00000000    rchrg fchrg qchrg
     2     2     2     0     0    nproj
     1     1           extension_switch
   0                        -3.3074230596726D+00 -8.9818540260763D-02
     1  0.0000000000000D+00 -7.3188122229340D-12  2.3744270438719D-10
     2  1.0000000000000D-02  4.3683254602200D-02  2.8533084121294D-02
     3  2.0000000000000D-02  8.7316450182341D-02  5.7007079578815D-02
     4  3.0000000000000D-02  1.3084961963100D-01  8.5362604796099D-02
     5  4.0000000000000D-02  1.7423297935836D-01  1.1353969811831D-01
     6  5.0000000000000D-02  2.1741702029158D-01  1.4147754207992D-01
     7  6.0000000000000D-02  2.6035259796268D-01  1.6911420467120D-01
     8  7.0000000000000D-02  3.0299102139208D-01  1.9638640298939D-01
     9  8.0000000000000D-02  3.4528414048074D-01  2.2322929442276D-01
    10  9.0000000000000D-02  3.8718443163271D-01  2.4957630022349D-01
    11  1.0000000000000D-01  4.2864508134042D-01  2.7535896598003D-01
    12  1.1000000000000D-01  4.6962006747751D-01  3.0050686310457D-01
    13  1.2000000000000D-01  5.1006423805771D-01  3.2494753501079D-01
    14  1.3000000000000D-01  5.4993338723321D-01  3.4860649117401D-01
    15  1.4000000000000D-01  5.8918432832240D-01  3.7140725174548D-01
    16  1.5000000000000D-01  6.2777496367431D-01  3.9327144483921D-01
    17  1.6000000000000D-01  6.6566435119535D-01  4.1411895802870D-01
    18  1.7000000000000D-01  7.0281276738335D-01  4.3386814498666D-01
    19  1.8000000000000D-01  7.3918176673371D-01  4.5243608758082D-01
    20  1.9000000000000D-01  7.7473423740302D-01  4.6973891310602D-01
    21  2.0000000000000D-01  8.0943445303617D-01  4.8569216569588D-01
    22  2.1000000000000D-01  8.4324812068401D-01  5.0021123032028D-01
    23  2.2000000000000D-01  8.7614242475996D-01  5.1321180714388D-01
    24  2.3000000000000D-01  9.0808606700432D-01  5.2461043340368D-01
    25  2.4000000000000D-01  9.3904930244630D-01  5.3432504936297D-01
    26  2.5000000000000D-01  9.6900397137348D-01  5.4227560432422D-01
    27  2.6000000000000D-01  9.9792352733841D-01  5.4838469813651D-01
    28  2.7000000000000D-01  1.0257830612506D+00  5.5257825312325D-01
    29  2.8000000000000D-01  1.0525593216202D+00  5.5478621088414D-01
    30  2.9000000000000D-01  1.0782307310373D+00  5.5494324800032D-01
    31  3.0000000000000D-01  1.1027773989847D+00  5.5298950429494D-01
    32  3.1000000000000D-01  1.1261811310993D+00  5.4887131697836D-01
    33  3.2000000000000D-01  1.1484254350085D+00  5.4254195374189D-01
    34  3.3000000000000D-01  1.1694955228789D+00  5.3396233765780D-01
    35  3.4000000000000D-01  1.1893783108290D+00  5.2310175660133D-01
    36  3.5000000000000D-01  1.2080624153607D+00  5.0993854983222D-01
    37  3.6000000000000D-01  1.2255381469754D+00  4.9446076436286D-01
    38  3.7000000000000D-01  1.2417975011445D+00  4.7666677379641D-01
    39  3.8000000000000D-01  1.2568341468072D+00  4.5656585244353D-01
    40  3.9000000000000D-01  1.2706434125716D+00  4.3417869771850D-01
    41  4.0000000000000D-01  1.2832222707941D+00  4.0953789407613D-01
    42  4.1000000000000D-01  1.2945693197115D+00  3.8268831207621D-01
    43  4.2000000000000D-01  1.3046847637974D+00  3.5368743655282D-01
    44  4.3000000000000D-01  1.3135703925079D+00  3.2260561831667D-01
    45  4.4000000000000D-01  1.3212295575792D+00  2.8952624432857D-01
    46  4.5000000000000D-01  1.3276671490271D+00  2.5454582184814D-01
    47  4.6000000000000D-01  1.3328895699952D+00  2.1777397267545D-01
    48  4.7000000000000D-01  1.3369047105833D+00  1.7933333426766D-01
    49  4.8000000000000D-01  1.3397219207802D+00  1.3935936521374D-01
    50  4.9000000000000D-01  1.3413519826103D+00  9.8000053291183D-02
    51  5.0000000000000D-01  1.3418070815921D+00  5.5415525095857D-02
    52  5.1000000000000D-01  1.3411007775931D+00  1.1777557030593D-02
    53  5.2000000000000D-01  1.3392479751493D+00 -3.2731011753129D-02
    54  5.3000000000000D-01  1.3362648933059D+00 -7.7916963043637D-02
    55  5.4000000000000D-01  1.3321690350187D+00 -1.2357747764707D-01
    56  5.5000000000000D-01  1.3269791561424D+00 -1.6950100479163D-01
    57  5.6000000000000D-01  1.3207152340167D+00 -2.1546821898233D-01
    58  5.7000000000000D-01  1.3133984356464D+00 -2.6125305963671D-01
    59  5.8000000000000D-01  1.3050510854586D+00 -3.0662384805866D-01
    60  5.9000000000000D-01  1.2956966326066D+00 -3.5134447556914D-01
    61  6.0000000000000D-01  1.2853596177767D+00 -3.9517565590767D-01
    62  6.1000000000000D-01  1.2740656394441D+00 -4.3787623436005D-01
    63  6.2000000000000D-01  1.2618413195115D+00 -4.7920454545826D-01
    64  6.3000000000000D-01  1.2487142682571D+00 -5.1891981054440D-01
    65  6.4000000000000D-01  1.2347130485086D+00 -5.5678356599863D-01
    66  6.5000000000000D-01  1.2198671389537D+00 -5.9256111250447D-01
    67  6.6000000000000D-01  1.2042068964942D+00 -6.2602297536829D-01
    68  6.7000000000000D-01  1.1877635175439D+00 -6.5694636563028D-01
    69  6.8000000000000D-01  1.1705689981722D+00 -6.8511663149884D-01
    70  6.9000000000000D-01  1.1526560929938D+00 -7.1032868951884D-01
    71  7.0000000000000D-01  1.1340582727050D+00 -7.3238842484414D-01
    72  7.1000000000000D-01  1.1148096801741D+00 -7.5111405002815D-01
    73  7.2000000000000D-01  1.0949450849946D+00 -7.6633741187675D-01
    74  7.3000000000000D-01  1.0744998364208D+00 -7.7790523612117D-01
    75  7.4000000000000D-01  1.0535098146107D+00 -7.8568029996836D-01
    76  7.5000000000000D-01  1.0320113801140D+00 -7.8954252296683D-01
    77  7.6000000000000D-01  1.0100413215542D+00 -7.8938996709046D-01
    78  7.7000000000000D-01  9.8763680146638D-01 -7.8513973748369D-01
    79  7.8000000000000D-01  9.6483530026935D-01 -7.7672877592771D-01
    80  7.9000000000000D-01  9.4167455836538D-01 -7.6411453977530D-01
    81  8.0000000000000D-01  9.1819251637900D-01 -7.4727555985438D-01
    82  8.1000000000000D-01  8.9442725356495D-01 -7.2621187165625D-01
    83  8.2000000000000D-01  8.7041692443459D-01 -7.0094531499254D-01
    84  8.3000000000000D-01  8.4619969367037D-01 -6.7151969822441D-01
    85  8.4000000000000D-01  8.2181366941870D-01 -6.3800082412615D-01
    86  8.5000000000000D-01  7.9729683507245D-01 -6.0047637544133D-01
    87  8.6000000000000D-01  7.7268697967569D-01 -5.5905565920965D-01
    88  8.7000000000000D-01  7.4802162710444D-01 -5.1386920998409D-01
    89  8.8000000000000D-01  7.2333796419804D-01 -4.6506825310844D-01
    90  8.9000000000000D-01  6.9867276803619D-01 -4.1282403027928D-01
    91  9.0000000000000D-01  6.7406233257675D-01 -3.5732699066361D-01
    92  9.1000000000000D-01  6.4954239488807D-01 -2.9878585187669D-01
    93  9.2000000000000D-01  6.2514806122765D-01 -2.3742653613420D-01
    94  9.3000000000000D-01  6.0091373323559D-01 -1.7349098787166D-01
    95  9.4000000000000D-01  5.7687303452629D-01 -1.0723588006292D-01
    96  9.5000000000000D-01  5.5305873797567D-01 -3.8931217360884D-02
    97  9.6000000000000D-01  5.2950269401273D-01  3.1141154980023D-02
    98  9.7000000000000D-01  5.0623576023409D-01  1.0268912666699D-01
    99  9.8000000000000D-01  4.8328773266802D-01  1.7541197197676D-01
   100  9.9000000000000D-01  4.6068727901971D-01  2.4900206234513D-01
   101  1.0000000000000D+00  4.3846187423286D-01  3.2314663032356D-01
   102  1.0100000000000D+00  4.1663773870332D-01  3.9752957282245D-01
   103  1.0200000000000D+00  3.9523977947868D-01  4.7183328119757D-01
   104  1.0300000000000D+00  3.7429153477354D-01  5.4574048545604D-01
   105  1.0400000000000D+00  3.5381512212296D-01  6.1893609968000D-01
   106  1.0500000000000D+00  3.3383119048699D-01  6.9110905569495D-01
   107  1.0600000000000D+00  3.1435887660807D-01  7.6195411201682D-01
   108  1.0700000000000D+00  2.9541576590680D-01  8.3117362525147D-01
   109  1.0800000000000D+00  2.7701785818560D-01  8.9847927133777D-01
   110  1.0900000000000D+00  2.5917953838961D-01  9.6359370435877D-01
   111  1.1000000000000D+00  2.4191355265167D-01  1.0262521410861D+00
   112  1.1100000000000D+00  2.2523098982662D-01  1.0862038598765D+00
   113  1.1200000000000D+00  2.0914126869013D-01  1.1432136032506D+00
   114  1.1300000000000D+00  1.9365213095219D-01  1.1970628741035D+00
   115  1.1400000000000D+00  1.7876964020129D-01  1.2475511164086D+00
   116  1.1500000000000D+00  1.6449818687288D-01  1.2944967718684D+00
   117  1.1600000000000D+00  1.5084049929144D-01  1.3377382052306D+00
   118  1.1700000000000D+00  1.3779766080899D-01  1.3771344917771D+00
   119  1.1800000000000D+00  1.2536913302408D-01  1.4125660616652D+00
   120  1.1900000000000D+00  1.1355278503823D-01  1.4439351966360D+00
   121  1.2000000000000D+00  1.0234492865870D-01  1.4711663761249D+00
   122  1.2100000000000D+00  9.1740359425038D-02  1.4942064708664D+00
   123  1.2200000000000D+00  8.1732403311650D-02  1.5130247829078D+00
   124  1.2300000000000D+00  7.2312968908692D-02  1.5276129326260D+00
   125  1.2400000000000D+00  6.3472604852351D-02  1.5379845944686D+00
   126  1.2500000000000D+00  5.5200562250428D-02  1.5441750840267D+00
   127  1.2600000000000D+00  4.7484861812241D-02  1.5462408003566D+00
   128  1.2700000000000D+00  4.0312365351648D-02  1.5442585290041D+00
   129  1.2800000000000D+00  3.3668851318486D-02  1.5383246117172D+00
   130  1.2900000000000D+00  2.7539093982560D-02  1.5285539899935D+00
   131  1.3000000000000D+00  2.1906945855716D-02  1.5150791312403D+00
   132  1.3100000000000D+00  1.6755422936689D-02  1.4980488463891D+00
   133  1.3200000000000D+00  1.2066792331906D-02  1.4776270090766D+00
   134  1.3300000000000D+00  7.8226617825089D-03  1.4539911877344D+00
   135  1.3400000000000D+00  4.0040706331777D-03  1.4273312016425D+00
   136  1.3500000000000D+00  5.9158174744895D-04  1.3978476135006D+00
   137  1.3600000000000D+00 -2.4346261208577D-03  1.3657501713678D+00
   138  1.3700000000000D+00 -5.0946659974156D-03  1.3312562126939D+00
   139  1.3800000000000D+00 -7.4088509014825D-03  1.2945890444254D+00
   140  1.3900000000000D+00 -9.3976030909951D-03  1.2559763124455D+00
   141  1.4000000000000D+00 -1.1081364845946D-02  1.2156483744189D+00
   142  1.4100000000000D+00 -1.2480511246108D-02  1.1738366894746D+00
   143  1.4200000000000D+00 -1.3615265435463D-02  1.1307722385945D+00
   144  1.4300000000000D+00 -1.4505616813110D-02  1.0866839890348D+00
   145  1.4400000000000D+00 -1.5171242567242D-02  1.0417974152809D+00
   146  1.4500000000000D+00 -1.5631433011530D-02  9.9633309030003D-01
   147  1.4600000000000D+00 -1.5905021028132D-02  9.5050535715416D-01
   148  1.4700000000000D+00 -1.6010316066824D-02  9.0452109453139D-01
   149  1.4800000000000D+00 -1.5965042945364D-02  8.5857858483045D-01
   150  1.4900000000000D+00 -1.5786285783178D-02  8.1286649541688D-01
   151  1.5000000000000D+00 -1.5490437344034D-02  7.6756298247705D-01
   152  1.5100000000000D+00 -1.5093153922139D-02  7.2283492282031D-01
   153  1.5200000000000D+00 -1.4609316104576D-02  6.7883728465945D-01
   154  1.5300000000000D+00 -1.4052995347058D-02  6.3571263718311D-01
   155  1.5400000000000D+00 -1.3437426694840D-02  5.9359080999808D-01
   156  1.5500000000000D+00 -1.2774987484895D-02  5.5258869929343D-01
   157  1.5600000000000D+00 -1.2077182229292D-02  5.1281022805975D-01
   158  1.5700000000000D+00 -1.1354633528648D-02  4.7434645751391D-01
   159  1.5800000000000D+00 -1.0617079012452D-02  4.3727585109313D-01
   160  1.5900000000000D+00 -9.8733741971273D-03  4.0166468939627D-01
   161  1.6000000000000D+00 -9.1315010536151D-03  3.6756763122324D-01
   162  1.6100000000000D+00 -8.3985822129655D-03  3.3502842027016D-01
   163  1.6200000000000D+00 -7.6809004182785D-03  3.0408072690370D-01
   164  1.6300000000000D+00 -6.9839232651551D-03  2.7474914942976D-01
   165  1.6400000000000D+00 -6.3123320460645D-03  2.4705019409153D-01
   166  1.6500000000000D+00 -5.6700571778779D-03  2.2099387172494D-01
   167  1.6600000000000D+00 -5.0603120350140D-03  1.9658404319543D-01
   168  1.6700000000000D+00 -4.4856384434545D-03  1.7382069502954D-01
   169  1.6800000000000D+00 -3.9479596016463D-03  1.5270358779806D-01
   170  1.6900000000000D+00 -3.4486037762033D-03  1.3322762772639D-01
   171  1.7000000000000D+00 -2.9883365653940D-03  1.1537976474877D-01
   172  1.7100000000000D+00 -2.5673927823518D-03  9.9136453018233D-02
   173  1.7200000000000D+00 -2.1855000057699D-03  8.4458532698104D-02
   174  1.7300000000000D+00 -1.8419346717204D-03  7.1294221699717D-02
   175  1.7400000000000D+00 -1.5355770701745D-03  5.9581915141979D-02
   176  1.7500000000000D+00 -1.2649590478255D-03  4.9250678097314D-02
   177  1.7600000000000D+00 -1.0283163678835D-03  4.0222041460371D-02
   178  1.7700000000000D+00 -8.2363917484701D-04  3.2411421580845D-02
   179  1.7800000000000D+00 -6.4872187075415D-04  2.5729565011820D-02
   180  1.7900000000000D+00 -5.0121148179193D-04  2.0083954560057D-02
   181  1.8000000000000D+00 -3.7865433777746D-04  1.5380154886824D-02
   182  1.8100000000000D+00 -2.7854038930419D-04  1.1523084831106D-02
   183  1.8200000000000D+00 -1.9834502964558D-04  8.4182127644524D-03
   184  1.8300000000000D+00 -1.3556792307672D-04  5.9726607533764D-03
   185  1.8400000000000D+00 -8.7768534382234D-05  4.0962089104594D-03
   186  1.8500000000000D+00 -5.2595154960940D-05  2.7022479860388D-03
   187  1.8600000000000D+00 -2.7810949371967D-05  1.7085924254558D-03
   188  1.8700000000000D+00 -1.1372446063174D-05  1.0372613481250D-03
   189  1.8800000000000D+00 -1.4468737550640D-06  6.1376257766284D-04
   190  1.8900000000000D+00  4.0072149080736D-06  3.8042922104772D-04
   191  1.9000000000000D+00  6.8103213446629D-06  2.8738649412703D-04
   192  1.9100000000000D+00  7.4853181611642D-06  2.5407388104747D-04
   193  1.9200000000000D+00  5.8312100165617D-06  1.9452369379986D-04
   194  1.9300000000000D+00  2.5778192241403D-06  8.7551346916525D-05
   195  1.9400000000000D+00 -1.5201287402312D-07 -4.9366002326445D-06
   196  1.9500000000000D+00 -7.2098099599806D-07 -2.3488364813138D-05
   197  1.9600000000000D+00 -1.7164572538252D-07 -5.6184651258736D-06
   198  1.9700000000000D+00  1.5571842986069D-07  4.7830639483205D-06
   199  1.9800000000000D+00  1.0866548789439D-07  3.3222273551730D-06
   200  1.9900000000000D+00 -1.1464568376943D-08 -3.8324456059005D-07
   201  2.0000000000000D+00 -1.8114337306269D-08 -6.0553707850724D-07
   202  2.0100000000000D+00  0.0000000000000D+00  0.0000000000000D+00
   203  2.0200000000000D+00  0.0000000000000D+00  0.0000000000000D+00
   204  2.0300000000000D+00  0.0000000000000D+00  0.0000000000000D+00
   205  2.0400000000000D+00  0.0000000000000D+00  0.0000000000000D+00
   206  2.0500000000000D+00  0.0000000000000D+00  0.0000000000000D+00
   207  2.0600000000000D+00  0.0000000000000D+00  0.0000000000000D+00
   208  2.0700000000000D+00  0.0000000000000D+00  0.0000000000000D+00
   209  2.0800000000000D+00  0.0000000000000D+00  0.0000000000000D+00
   210  2.0900000000000D+00  0.0000000000000D+00  0.0000000000000D+00
   211  2.1000000000000D+00  0.0000000000000D+00  0.0000000000000D+00
   212  2.1100000000000D+00  0.0000000000000D+00  0.0000000000000D+00
   213  2.1200000000000D+00  0.0000000000000D+00  0.0000000000000D+00
   214  2.1300000000000D+00  0.0000000000000D+00  0.0000000000000D+00
   215  2.1400000000000D+00  0.0000000000000D+00  0.0000000000000D+00
   216  2.1500000000000D+00  0.0000000000000D+00  0.0000000000000D+00
   217  2.1600000000000D+00  0.0000000000000D+00  0.0000000000000D+00
   218  2.1700000000000D+00  0.0000000000000D+00  0.0000000000000D+00
   219  2.1800000000000D+00  0.0000000000000D+00  0.0000000000000D+00
   220  2.1900000000000D+00  0.0000000000000D+00  0.0000000000000D+00
   221  2.2000000000000D+00  0.0000000000000D+00  0.0000000000000D+00
   222  2.2100000000000D+00  0.0000000000000D+00  0.0000000000000D+00
   223  2.2200000000000D+00  0.0000000000000D+00  0.0000000000000D+00
   224  2.2300000000000D+00  0.0000000000000D+00  0.0000000000000D+00
   225  2.2400000000000D+00  0.0000000000000D+00  0.0000000000000D+00
   226  2.2500000000000D+00  0.0000000000000D+00  0.0000000000000D+00
   227  2.2600000000000D+00  0.0000000000000D+00  0.0000000000000D+00
   228  2.2700000000000D+00  0.0000000000000D+00  0.0000000000000D+00
   229  2.2800000000000D+00  0.0000000000000D+00  0.0000000000000D+00
   230  2.2900000000000D+00  0.0000000000000D+00  0.0000000000000D+00
   231  2.3000000000000D+00  0.0000000000000D+00  0.0000000000000D+00
   232  2.3100000000000D+00  0.0000000000000D+00  0.0000000000000D+00
   233  2.3200000000000D+00  0.0000000000000D+00  0.0000000000000D+00
   234  2.3300000000000D+00  0.0000000000000D+00  0.0000000000000D+00
   235  2.3400000000000D+00  0.0000000000000D+00  0.0000000000000D+00
   236  2.3500000000000D+00  0.0000000000000D+00  0.0000000000000D+00
   237  2.3600000000000D+00  0.0000000000000D+00  0.0000000000000D+00
   238  2.3700000000000D+00  0.0000000000000D+00  0.0000000000000D+00
   239  2.3800000000000D+00  0.0000000000000D+00  0.0000000000000D+00
   240  2.3900000000000D+00  0.0000000000000D+00  0.0000000000000D+00
   241  2.4000000000000D+00  0.0000000000000D+00  0.0000000000000D+00
   242  2.4100000000000D+00  0.0000000000000D+00  0.0000000000000D+00
   243  2.4200000000000D+00  0.0000000000000D+00  0.0000000000000D+00
   244  2.4300000000000D+00  0.0000000000000D+00  0.0000000000000D+00
   245  2.4400000000000D+00  0.0000000000000D+00  0.0000000000000D+00
   246  2.4500000000000D+00  0.0000000000000D+00  0.0000000000000D+00
   247  2.4600000000000D+00  0.0000000000000D+00  0.0000000000000D+00
   248  2.4700000000000D+00  0.0000000000000D+00  0.0000000000000D+00
   249  2.4800000000000D+00  0.0000000000000D+00  0.0000000000000D+00
   250  2.4900000000000D+00  0.0000000000000D+00  0.0000000000000D+00
   251  2.5000000000000D+00  0.0000000000000D+00  0.0000000000000D+00
   252  2.5100000000000D+00  0.0000000000000D+00  0.0000000000000D+00
   253  2.5200000000000D+00  0.0000000000000D+00  0.0000000000000D+00
   254  2.5300000000000D+00  0.0000000000000D+00  0.0000000000000D+00
   255  2.5400000000000D+00  0.0000000000000D+00  0.0000000000000D+00
   256  2.5500000000000D+00  0.0000000000000D+00  0.0000000000000D+00
   257  2.5600000000000D+00  0.0000000000000D+00  0.0000000000000D+00
   258  2.5700000000000D+00  0.0000000000000D+00  0.0000000000000D+00
   259  2.5800000000000D+00  0.0000000000000D+00  0.0000000000000D+00
   260  2.5900000000000D+00  0.0000000000000D+00  0.0000000000000D+00
   261  2.6000000000000D+00  0.0000000000000D+00  0.0000000000000D+00
   262  2.6100000000000D+00  0.0000000000000D+00  0.0000000000000D+00
   263  2.6200000000000D+00  0.0000000000000D+00  0.0000000000000D+00
   264  2.6300000000000D+00  0.0000000000000D+00  0.0000000000000D+00
   265  2.6400000000000D+00  0.0000000000000D+00  0.0000000000000D+00
   266  2.6500000000000D+00  0.0000000000000D+00  0.0000000000000D+00
   267  2.6600000000000D+00  0.0000000000000D+00  0.0000000000000D+00
   268  2.6700000000000D+00  0.0000000000000D+00  0.0000000000000D+00
   269  2.6800000000000D+00  0.0000000000000D+00  0.0000000000000D+00
   270  2.6900000000000D+00  0.0000000000000D+00  0.0000000000000D+00
   271  2.7000000000000D+00  0.0000000000000D+00  0.0000000000000D+00
   272  2.7100000000000D+00  0.0000000000000D+00  0.0000000000000D+00
   273  2.7200000000000D+00  0.0000000000000D+00  0.0000000000000D+00
   274  2.7300000000000D+00  0.0000000000000D+00  0.0000000000000D+00
   275  2.7400000000000D+00  0.0000000000000D+00  0.0000000000000D+00
   276  2.7500000000000D+00  0.0000000000000D+00  0.0000000000000D+00
   277  2.7600000000000D+00  0.0000000000000D+00  0.0000000000000D+00
   278  2.7700000000000D+00  0.0000000000000D+00  0.0000000000000D+00
   279  2.7800000000000D+00  0.0000000000000D+00  0.0000000000000D+00
   280  2.7900000000000D+00  0.0000000000000D+00  0.0000000000000D+00
   281  2.8000000000000D+00  0.0000000000000D+00  0.0000000000000D+00
   282  2.8100000000000D+00  0.0000000000000D+00  0.0000000000000D+00
   283  2.8200000000000D+00  0.0000000000000D+00  0.0000000000000D+00
   284  2.8300000000000D+00  0.0000000000000D+00  0.0000000000000D+00
   285  2.8400000000000D+00  0.0000000000000D+00  0.0000000000000D+00
   286  2.8500000000000D+00  0.0000000000000D+00  0.0000000000000D+00
   287  2.8600000000000D+00  0.0000000000000D+00  0.0000000000000D+00
   288  2.8700000000000D+00  0.0000000000000D+00  0.0000000000000D+00
   289  2.8800000000000D+00  0.0000000000000D+00  0.0000000000000D+00
   290  2.8900000000000D+00  0.0000000000000D+00  0.0000000000000D+00
   291  2.9000000000000D+00  0.0000000000000D+00  0.0000000000000D+00
   292  2.9100000000000D+00  0.0000000000000D+00  0.0000000000000D+00
   293  2.9200000000000D+00  0.0000000000000D+00  0.0000000000000D+00
   294  2.9300000000000D+00  0.0000000000000D+00  0.0000000000000D+00
   295  2.9400000000000D+00  0.0000000000000D+00  0.0000000000000D+00
   296  2.9500000000000D+00  0.0000000000000D+00  0.0000000000000D+00
   297  2.9600000000000D+00  0.0000000000000D+00  0.0000000000000D+00
   298  2.9700000000000D+00  0.0000000000000D+00  0.0000000000000D+00
   299  2.9800000000000D+00  0.0000000000000D+00  0.0000000000000D+00
   300  2.9900000000000D+00  0.0000000000000D+00  0.0000000000000D+00
   301  3.0000000000000D+00  0.0000000000000D+00  0.0000000000000D+00
   302  3.0100000000000D+00  0.0000000000000D+00  0.0000000000000D+00
   303  3.0200000000000D+00  0.0000000000000D+00  0.0000000000000D+00
   304  3.0300000000000D+00  0.0000000000000D+00  0.0000000000000D+00
   305  3.0400000000000D+00  0.0000000000000D+00  0.0000000000000D+00
   306  3.0500000000000D+00  0.0000000000000D+00  0.0000000000000D+00
   307  3.0600000000000D+00  0.0000000000000D+00  0.0000000000000D+00
   308  3.0700000000000D+00  0.0000000000000D+00  0.0000000000000D+00
   309  3.0800000000000D+00  0.0000000000000D+00  0.0000000000000D+00
   310  3.0900000000000D+00  0.0000000000000D+00  0.0000000000000D+00
   311  3.1000000000000D+00  0.0000000000000D+00  0.0000000000000D+00
   312  3.1100000000000D+00  0.0000000000000D+00  0.0000000000000D+00
   313  3.1200000000000D+00  0.0000000000000D+00  0.0000000000000D+00
   314  3.1300000000000D+00  0.0000000000000D+00  0.0000000000000D+00
   315  3.1400000000000D+00  0.0000000000000D+00  0.0000000000000D+00
   316  3.1500000000000D+00  0.0000000000000D+00  0.0000000000000D+00
   317  3.1600000000000D+00  0.0000000000000D+00  0.0000000000000D+00
   318  3.1700000000000D+00  0.0000000000000D+00  0.0000000000000D+00
   319  3.1800000000000D+00  0.0000000000000D+00  0.0000000000000D+00
   320  3.1900000000000D+00  0.0000000000000D+00  0.0000000000000D+00
   321  3.2000000000000D+00  0.0000000000000D+00  0.0000000000000D+00
   322  3.2100000000000D+00  0.0000000000000D+00  0.0000000000000D+00
   323  3.2200000000000D+00  0.0000000000000D+00  0.0000000000000D+00
   324  3.2300000000000D+00  0.0000000000000D+00  0.0000000000000D+00
   325  3.2400000000000D+00  0.0000000000000D+00  0.0000000000000D+00
   326  3.2500000000000D+00  0.0000000000000D+00  0.0000000000000D+00
   327  3.2600000000000D+00  0.0000000000000D+00  0.0000000000000D+00
   328  3.2700000000000D+00  0.0000000000000D+00  0.0000000000000D+00
   329  3.2800000000000D+00  0.0000000000000D+00  0.0000000000000D+00
   330  3.2900000000000D+00  0.0000000000000D+00  0.0000000000000D+00
   331  3.3000000000000D+00  0.0000000000000D+00  0.0000000000000D+00
   332  3.3100000000000D+00  0.0000000000000D+00  0.0000000000000D+00
   333  3.3200000000000D+00  0.0000000000000D+00  0.0000000000000D+00
   334  3.3300000000000D+00  0.0000000000000D+00  0.0000000000000D+00
   335  3.3400000000000D+00  0.0000000000000D+00  0.0000000000000D+00
   336  3.3500000000000D+00  0.0000000000000D+00  0.0000000000000D+00
   337  3.3600000000000D+00  0.0000000000000D+00  0.0000000000000D+00
   338  3.3700000000000D+00  0.0000000000000D+00  0.0000000000000D+00
   339  3.3800000000000D+00  0.0000000000000D+00  0.0000000000000D+00
   340  3.3900000000000D+00  0.0000000000000D+00  0.0000000000000D+00
   341  3.4000000000000D+00  0.0000000000000D+00  0.0000000000000D+00
   342  3.4100000000000D+00  0.0000000000000D+00  0.0000000000000D+00
   343  3.4200000000000D+00  0.0000000000000D+00  0.0000000000000D+00
   344  3.4300000000000D+00  0.0000000000000D+00  0.0000000000000D+00
   345  3.4400000000000D+00  0.0000000000000D+00  0.0000000000000D+00
   346  3.4500000000000D+00  0.0000000000000D+00  0.0000000000000D+00
   347  3.4600000000000D+00  0.0000000000000D+00  0.0000000000000D+00
   348  3.4700000000000D+00  0.0000000000000D+00  0.0000000000000D+00
   349  3.4800000000000D+00  0.0000000000000D+00  0.0000000000000D+00
   350  3.4900000000000D+00  0.0000000000000D+00  0.0000000000000D+00
   351  3.5000000000000D+00  0.0000000000000D+00  0.0000000000000D+00
   352  3.5100000000000D+00  0.0000000000000D+00  0.0000000000000D+00
   353  3.5200000000000D+00  0.0000000000000D+00  0.0000000000000D+00
   354  3.5300000000000D+00  0.0000000000000D+00  0.0000000000000D+00
   355  3.5400000000000D+00  0.0000000000000D+00  0.0000000000000D+00
   356  3.5500000000000D+00  0.0000000000000D+00  0.0000000000000D+00
   357  3.5600000000000D+00  0.0000000000000D+00  0.0000000000000D+00
   358  3.5700000000000D+00  0.0000000000000D+00  0.0000000000000D+00
   359  3.5800000000000D+00  0.0000000000000D+00  0.0000000000000D+00
   360  3.5900000000000D+00  0.0000000000000D+00  0.0000000000000D+00
   361  3.6000000000000D+00  0.0000000000000D+00  0.0000000000000D+00
   362  3.6100000000000D+00  0.0000000000000D+00  0.0000000000000D+00
   363  3.6200000000000D+00  0.0000000000000D+00  0.0000000000000D+00
   364  3.6300000000000D+00  0.0000000000000D+00  0.0000000000000D+00
   365  3.6400000000000D+00  0.0000000000000D+00  0.0000000000000D+00
   366  3.6500000000000D+00  0.0000000000000D+00  0.0000000000000D+00
   367  3.6600000000000D+00  0.0000000000000D+00  0.0000000000000D+00
   368  3.6700000000000D+00  0.0000000000000D+00  0.0000000000000D+00
   369  3.6800000000000D+00  0.0000000000000D+00  0.0000000000000D+00
   370  3.6900000000000D+00  0.0000000000000D+00  0.0000000000000D+00
   371  3.7000000000000D+00  0.0000000000000D+00  0.0000000000000D+00
   372  3.7100000000000D+00  0.0000000000000D+00  0.0000000000000D+00
   373  3.7200000000000D+00  0.0000000000000D+00  0.0000000000000D+00
   374  3.7300000000000D+00  0.0000000000000D+00  0.0000000000000D+00
   375  3.7400000000000D+00  0.0000000000000D+00  0.0000000000000D+00
   376  3.7500000000000D+00  0.0000000000000D+00  0.0000000000000D+00
   377  3.7600000000000D+00  0.0000000000000D+00  0.0000000000000D+00
   378  3.7700000000000D+00  0.0000000000000D+00  0.0000000000000D+00
   379  3.7800000000000D+00  0.0000000000000D+00  0.0000000000000D+00
   380  3.7900000000000D+00  0.0000000000000D+00  0.0000000000000D+00
   381  3.8000000000000D+00  0.0000000000000D+00  0.0000000000000D+00
   382  3.8100000000000D+00  0.0000000000000D+00  0.0000000000000D+00
   383  3.8200000000000D+00  0.0000000000000D+00  0.0000000000000D+00
   384  3.8300000000000D+00  0.0000000000000D+00  0.0000000000000D+00
   385  3.8400000000000D+00  0.0000000000000D+00  0.0000000000000D+00
   386  3.8500000000000D+00  0.0000000000000D+00  0.0000000000000D+00
   387  3.8600000000000D+00  0.0000000000000D+00  0.0000000000000D+00
   388  3.8700000000000D+00  0.0000000000000D+00  0.0000000000000D+00
   389  3.8800000000000D+00  0.0000000000000D+00  0.0000000000000D+00
   390  3.8900000000000D+00  0.0000000000000D+00  0.0000000000000D+00
   391  3.9000000000000D+00  0.0000000000000D+00  0.0000000000000D+00
   392  3.9100000000000D+00  0.0000000000000D+00  0.0000000000000D+00
   393  3.9200000000000D+00  0.0000000000000D+00  0.0000000000000D+00
   394  3.9300000000000D+00  0.0000000000000D+00  0.0000000000000D+00
   395  3.9400000000000D+00  0.0000000000000D+00  0.0000000000000D+00
   396  3.9500000000000D+00  0.0000000000000D+00  0.0000000000000D+00
   397  3.9600000000000D+00  0.0000000000000D+00  0.0000000000000D+00
   398  3.9700000000000D+00  0.0000000000000D+00  0.0000000000000D+00
   399  3.9800000000000D+00  0.0000000000000D+00  0.0000000000000D+00
   400  3.9900000000000D+00  0.0000000000000D+00  0.0000000000000D+00
   401  4.0000000000000D+00  0.0000000000000D+00  0.0000000000000D+00
   402  4.0100000000000D+00  0.0000000000000D+00  0.0000000000000D+00
   403  4.0200000000000D+00  0.0000000000000D+00  0.0000000000000D+00
   404  4.0300000000000D+00  0.0000000000000D+00  0.0000000000000D+00
   405  4.0400000000000D+00  0.0000000000000D+00  0.0000000000000D+00
   406  4.0500000000000D+00  0.0000000000000D+00  0.0000000000000D+00
   407  4.0600000000000D+00  0.0000000000000D+00  0.0000000000000D+00
   408  4.0700000000000D+00  0.0000000000000D+00  0.0000000000000D+00
   409  4.0800000000000D+00  0.0000000000000D+00  0.0000000000000D+00
   410  4.0900000000000D+00  0.0000000000000D+00  0.0000000000000D+00
   411  4.1000000000000D+00  0.0000000000000D+00  0.0000000000000D+00
   412  4.1100000000000D+00  0.0000000000000D+00  0.0000000000000D+00
   413  4.1200000000000D+00  0.0000000000000D+00  0.0000000000000D+00
   414  4.1300000000000D+00  0.0000000000000D+00  0.0000000000000D+00
   415  4.1400000000000D+00  0.0000000000000D+00  0.0000000000000D+00
   416  4.1500000000000D+00  0.0000000000000D+00  0.0000000000000D+00
   417  4.1600000000000D+00  0.0000000000000D+00  0.0000000000000D+00
   418  4.1700000000000D+00  0.0000000000000D+00  0.0000000000000D+00
   419  4.1800000000000D+00  0.0000000000000D+00  0.0000000000000D+00
   420  4.1900000000000D+00  0.0000000000000D+00  0.0000000000000D+00
   421  4.2000000000000D+00  0.0000000000000D+00  0.0000000000000D+00
   422  4.2100000000000D+00  0.0000000000000D+00  0.0000000000000D+00