F     ONCVPSP-3.3.1  r_core=   1.60379   1.68217
      9.0000      7.0000      210904    zatom,zion,pspd
     8      11   1     4   600     0    pspcod,pspxc,lmax,lloc,mmax,r2well
  5.99000000  0.00000000  0.00000000    rchrg fchrg qchrg
     2     2     0     0     0    nproj
     1     1           extension_switch
   0                         5.5859068908066D+00  8.9449573707929D-01
     1  0.0000000000000D+00  1.4318890517728D-10 -3.8569977767189D-10
     2  1.0000000000000D-02  9.0514192821469D-02 -2.4726972961004D-02
     3  2.0000000000000D-02  1.8078347438501D-01 -4.9287211780997D-02
     4  3.0000000000000D-02  2.7056354033467D-01 -7.3514249203724D-02
     5  4.0000000000000D-02  3.5961130088670D-01 -9.7242157241566D-02
     6  5.0000000000000D-02  4.4768548999948D-01 -1.2030583045835D-01
     7  6.0000000000000D-02  5.3454727670076D-01 -1.4254128535333D-01
     8  7.0000000000000D-02  6.1996087912098D-01 -1.6378598075533D-01
     9  8.0000000000000D-02  7.0369418163820D-01 -1.8387916375021D-01
    10  9.0000000000000D-02  7.8551935536464D-01 -2.0266224519156D-01
    11  1.0000000000000D-01  8.6521348199957D-01 -2.1997920828892D-01
    12  1.1000000000000D-01  9.4255918084096D-01 -2.3567705313681D-01
    13  1.2000000000000D-01  1.0173452384917D+00 -2.4960627934929D-01
    14  1.3000000000000D-01  1.0893672405192D+00 -2.6162140820685D-01
    15  1.4000000000000D-01  1.1584282040339D+00 -2.7158154491401D-01
    16  1.5000000000000D-01  1.2243392098454D+00 -2.7935098071872D-01
    17  1.6000000000000D-01  1.2869200325407D+00 -2.8479983376675D-01
    18  1.7000000000000D-01  1.3459997665112D+00 -2.8780472666891D-01
    19  1.8000000000000D-01  1.4014174456369D+00 -2.8824949785668D-01
    20  1.9000000000000D-01  1.4530226540255D+00 -2.8602594290416D-01
    21  2.0000000000000D-01  1.5006761249026D+00 -2.8103458111399D-01
    22  2.1000000000000D-01  1.5442503244635D+00 -2.7318544181313D-01
    23  2.2000000000000D-01  1.5836300172314D+00 -2.6239886399337D-01
    24  2.3000000000000D-01  1.6187128092264D+00 -2.4860630217246D-01
    25  2.4000000000000D-01  1.6494096650367D+00 -2.3175113065654D-01
    26  2.5000000000000D-01  1.6756453947066D+00 -2.1178943776286D-01
    27  2.6000000000000D-01  1.6973591062126D+00 -1.8869080102495D-01
    28  2.7000000000000D-01  1.7145046192012D+00 -1.6243903395790D-01
    29  2.8000000000000D-01  1.7270508356035D+00 -1.3303289462064D-01
    30  2.9000000000000D-01  1.7349820627339D+00 -1.0048674597826D-01
    31  3.0000000000000D-01  1.7382982845206D+00 -6.4831157951278D-02
    32  3.1000000000000D-01  1.7370153766050D+00 -2.6113441042627D-02
    33  3.2000000000000D-01  1.7311652611933D+00  1.5601898438788D-02
    34  3.3000000000000D-01  1.7207959977382D+00  6.0232791282635D-02
    35  3.4000000000000D-01  1.7059718057795D+00  1.0767933575081D-01
    36  3.5000000000000D-01  1.6867730165748D+00  1.5782363424856D-01
    37  3.6000000000000D-01  1.6632959505074D+00  2.1052974448321D-01
    38  3.7000000000000D-01  1.6356527176597D+00  2.6564375253928D-01
    39  3.8000000000000D-01  1.6039709393961D+00  3.2299397441906D-01
    40  3.9000000000000D-01  1.5683933892937D+00  3.8239129160692D-01
    41  4.0000000000000D-01  1.5290775522975D+00  4.4362962511991D-01
    42  4.1000000000000D-01  1.4861951015521D+00  5.0648655131755D-01
    43  4.2000000000000D-01  1.4399312929685D+00  5.7072406146856D-01
    44  4.3000000000000D-01  1.3904842782194D+00  6.3608946572573D-01
    45  4.4000000000000D-01  1.3380643375129D+00  7.0231644075219D-01
    46  4.5000000000000D-01  1.2828930341653D+00  7.6912621878973D-01
    47  4.6000000000000D-01  1.2252022936750D+00  8.3622891447513D-01
    48  4.7000000000000D-01  1.1652334106848D+00  9.0332498420948D-01
    49  4.8000000000000D-01  1.1032359878970D+00  9.7010681138592D-01
    50  4.9000000000000D-01  1.0394668116754D+00  1.0362604092965D+00
    51  5.0000000000000D-01  9.7418866971976D-01  1.1014672320881D+00
    52  5.1000000000000D-01  9.0766911682101D-01  1.1654060827369D+00
    53  5.2000000000000D-01  8.4017919530072D-01  1.2277551056725D+00
    54  5.3000000000000D-01  7.7199211729130D-01  1.2881938504342D+00
    55  5.4000000000000D-01  7.0338191652282D-01  1.3464053915804D+00
    56  5.5000000000000D-01  6.3462207773987D-01  1.4020784890317D+00
    57  5.6000000000000D-01  5.6598415227154D-01  1.4549097721096D+00
    58  5.7000000000000D-01  4.9773636861633D-01  1.5046059297487D+00
    59  5.8000000000000D-01  4.3014224717336D-01  1.5508858887357D+00
    60  5.9000000000000D-01  3.6345922845185D-01  1.5934829613496D+00
    61  6.0000000000000D-01  2.9793732421509D-01  1.6321469434792D+00
    62  6.1000000000000D-01  2.3381780106330D-01  1.6666461441564D+00
    63  6.2000000000000D-01  1.7133190592872D-01  1.6967693274955D+00
    64  6.3000000000000D-01  1.1069964284478D-01  1.7223275482515D+00
    65  6.4000000000000D-01  5.2128610160663D-02  1.7431558626168D+00
    66  6.5000000000000D-01 -4.1870928986487D-03  1.7591148964660D+00
    67  6.6000000000000D-01 -5.8067881775915D-02  1.7700922540139D+00
    68  6.7000000000000D-01 -1.0934961609960D-01  1.7760037507833D+00
    69  6.8000000000000D-01 -1.5788443554592D-01  1.7767944558733D+00
    70  6.9000000000000D-01 -2.0354149497699D-01  1.7724395297552D+00
    71  7.0000000000000D-01 -2.4620759241517D-01  1.7629448452132D+00
    72  7.1000000000000D-01 -2.8578768409628D-01  1.7483473805423D+00
    73  7.2000000000000D-01 -3.2220528158298D-01  1.7287153757494D+00
    74  7.3000000000000D-01 -3.5540272669643D-01  1.7041482442005D+00
    75  7.4000000000000D-01 -3.8534134084160D-01  1.6747762339571D+00
    76  7.5000000000000D-01 -4.1200144614628D-01  1.6407598348803D+00
    77  7.6000000000000D-01 -4.3538225669558D-01  1.6022889294653D+00
    78  7.7000000000000D-01 -4.5550163902351D-01  1.5595816872666D+00
    79  7.8000000000000D-01 -4.7239574189824D-01  1.5128832046664D+00
    80  7.9000000000000D-01 -4.8611849631014D-01  1.4624638936014D+00
    81  8.0000000000000D-01 -4.9674098742769D-01  1.4086176246840D+00
    82  8.1000000000000D-01 -5.0435070111814D-01  1.3516596319046D+00
    83  8.2000000000000D-01 -5.0905064842840D-01  1.2919241877624D+00
    84  8.3000000000000D-01 -5.1095837217949D-01  1.2297620592311D+00
    85  8.4000000000000D-01 -5.1020484053624D-01  1.1655377563947D+00
    86  8.5000000000000D-01 -5.0693323306702D-01  1.0996265868810D+00
    87  8.6000000000000D-01 -5.0129762539708D-01  1.0324115303541D+00
    88  8.7000000000000D-01 -4.9346157908101D-01  9.6427994829355D-01
    89  8.8000000000000D-01 -4.8359664376598D-01  8.9562014507366D-01
    90  8.9000000000000D-01 -4.7188077908699D-01  8.2681779695582D-01
    91  9.0000000000000D-01 -4.5849670402255D-01  7.5825226600804D-01
    92  9.1000000000000D-01 -4.4363018164301D-01  6.9029281617169D-01
    93  9.2000000000000D-01 -4.2746824730211D-01  6.2329474869881D-01
    94  9.3000000000000D-01 -4.1019738835504D-01  5.5759547398794D-01
    95  9.4000000000000D-01 -3.9200168343437D-01  4.9351053645509D-01
    96  9.5000000000000D-01 -3.7306090882051D-01  4.3132960697829D-01
    97  9.6000000000000D-01 -3.5354862198758D-01  3.7131246835691D-01
    98  9.7000000000000D-01 -3.3363021855254D-01  3.1368496201641D-01
    99  9.8000000000000D-01 -3.1346104193419D-01  2.5863520759205D-01
   100  9.9000000000000D-01 -2.9318425322520D-01  2.0630886074531D-01
   101  1.0000000000000D+00 -2.7293151414189D-01  1.5681620739226D-01
   102  1.0100000000000D+00 -2.5282532184458D-01  1.1024492997170D-01
   103  1.0200000000000D+00 -2.3298005255787D-01  6.6666132850141D-02
   104  1.0300000000000D+00 -2.1350132742977D-01  2.6132779913507D-02
   105  1.0400000000000D+00 -1.9448578752745D-01 -1.1320198434286D-02
   106  1.0500000000000D+00 -1.7602087785175D-01 -4.5675936870579D-02
   107  1.0600000000000D+00 -1.5818470725307D-01 -7.6935495888535D-02
   108  1.0700000000000D+00 -1.4104598321223D-01 -1.0511755864319D-01
   109  1.0800000000000D+00 -1.2466401896402D-01 -1.3025797391844D-01
   110  1.0900000000000D+00 -1.0908881087107D-01 -1.5240915202344D-01
   111  1.1000000000000D+00 -9.4361183424452D-02 -1.7163932169772D-01
   112  1.1100000000000D+00 -8.0512998625145D-02 -1.8803165759327D-01
   113  1.1200000000000D+00 -6.7567426024075D-02 -2.0168328898792D-01
   114  1.1300000000000D+00 -5.5539269219223D-02 -2.1270420149252D-01
   115  1.1400000000000D+00 -4.4435344193730D-02 -2.2121604445319D-01
   116  1.1500000000000D+00 -3.4254904525281D-02 -2.2735085750601D-01
   117  1.1600000000000D+00 -2.4990108135749D-02 -2.3124973051403D-01
   118  1.1700000000000D+00 -1.6626520038095D-02 -2.3306141150517D-01
   119  1.1800000000000D+00 -9.1436453545156D-03 -2.3294087755331D-01
   120  1.1900000000000D+00 -2.5154867093783D-03 -2.3104788379970D-01
   121  1.2000000000000D+00  3.2888799545207D-03 -2.2754550577804D-01
   122  1.2100000000000D+00  8.3047170584300D-03 -2.2259868994372D-01
   123  1.2200000000000D+00  1.2571030475594D-02 -2.1637282714092D-01
   124  1.2300000000000D+00  1.6129973866512D-02 -2.0903236335140D-01
   125  1.2400000000000D+00  1.9026257789983D-02 -2.0073946106790D-01
   126  1.2500000000000D+00  2.1306568954482D-02 -1.9165272403370D-01
   127  1.2600000000000D+00  2.3019004698411D-02 -1.8192599721431D-01
   128  1.2700000000000D+00  2.4212527410633D-02 -1.7170725271254D-01
   129  1.2800000000000D+00  2.4936444064717D-02 -1.6113757375639D-01
   130  1.2900000000000D+00  2.5239913506375D-02 -1.5035024106926D-01
   131  1.3000000000000D+00  2.5171485263249D-02 -1.3946992959608D-01
   132  1.3100000000000D+00  2.4778674322700D-02 -1.2861202564886D-01
   133  1.3200000000000D+00  2.4107573116046D-02 -1.1788206472663D-01
   134  1.3300000000000D+00  2.3202502706755D-02 -1.0737529287201D-01
   135  1.3400000000000D+00  2.2105705557366D-02 -9.7176355476023D-02
   136  1.3500000000000D+00  2.0857080188685D-02 -8.7359111504888D-02
   137  1.3600000000000D+00  1.9493958224642D-02 -7.7986571760778D-02
   138  1.3700000000000D+00  1.8050924275907D-02 -6.9110959605260D-02
   139  1.3800000000000D+00  1.6559677362520D-02 -6.0773887814973D-02
   140  1.3900000000000D+00  1.5048933352874D-02 -5.3006647371871D-02
   141  1.4000000000000D+00  1.3544366818795D-02 -4.5830601026819D-02
   142  1.4100000000000D+00  1.2068589895649D-02 -3.9257672440698D-02
   143  1.4200000000000D+00  1.0641166634801D-02 -3.3290923964124D-02
   144  1.4300000000000D+00  9.2786592721265D-03 -2.7925210830196D-02
   145  1.4400000000000D+00  7.9947039743722D-03 -2.3147902506232D-02
   146  1.4500000000000D+00  6.8001125822163D-03 -1.8939659187351D-02
   147  1.4600000000000D+00  5.7029967182757D-03 -1.5275251383993D-02
   148  1.4700000000000D+00  4.7089108839979D-03 -1.2124410769107D-02
   149  1.4800000000000D+00  3.8210104297953D-03 -9.4526993236363D-03
   150  1.4900000000000D+00  3.0402208140712D-03 -7.2223846087149D-03
   151  1.5000000000000D+00  2.3654140654864D-03 -5.3933083284222D-03
   152  1.5100000000000D+00  1.7935889264200D-03 -3.9237368126033D-03
   153  1.5200000000000D+00  1.3200504582609D-03 -2.7711800204947D-03
   154  1.5300000000000D+00  9.3858638537483D-04 -1.8931707091617D-03
   155  1.5400000000000D+00  6.4163554191351D-04 -1.2479889979377D-03
   156  1.5500000000000D+00  4.2049722476100D-04 -7.9545713381733D-04
   157  1.5600000000000D+00  2.6534068707998D-04 -4.9718389647001D-04
   158  1.5700000000000D+00  1.6443993162840D-04 -3.1501541518987D-04
   159  1.5800000000000D+00  1.0786300041736D-04 -2.1979943457309D-04
   160  1.5900000000000D+00  8.9192710257338D-05 -1.9498563714087D-04
   161  1.6000000000000D+00  8.3797343803706D-05 -1.8838345166432D-04
   162  1.6100000000000D+00  5.4771795598069D-05 -1.2364681034625D-04
   163  1.6200000000000D+00  1.0883853340481D-05 -2.4562178923128D-05
   164  1.6300000000000D+00 -8.0448002465089D-06  1.8261953774698D-05
   165  1.6400000000000D+00 -2.6038143766674D-06  5.9140007410982D-06
   166  1.6500000000000D+00  1.7676873858061D-06 -4.0175139565246D-06
   167  1.6600000000000D+00  5.6746101109708D-07 -1.2904165566597D-06
   168  1.6700000000000D+00 -2.1401758858965D-07  4.8211462776858D-07
   169  1.6800000000000D+00 -6.9933650570064D-08  1.5753862163979D-07
   170  1.6900000000000D+00  0.0000000000000D+00  0.0000000000000D+00
   171  1.7000000000000D+00  0.0000000000000D+00  0.0000000000000D+00
   172  1.7100000000000D+00  0.0000000000000D+00  0.0000000000000D+00
   173  1.7200000000000D+00  0.0000000000000D+00  0.0000000000000D+00
   174  1.7300000000000D+00  0.0000000000000D+00  0.0000000000000D+00
   175  1.7400000000000D+00  0.0000000000000D+00  0.0000000000000D+00
   176  1.7500000000000D+00  0.0000000000000D+00  0.0000000000000D+00
   177  1.7600000000000D+00  0.0000000000000D+00  0.0000000000000D+00
   178  1.7700000000000D+00  0.0000000000000D+00  0.0000000000000D+00
   179  1.7800000000000D+00  0.0000000000000D+00  0.0000000000000D+00
   180  1.7900000000000D+00  0.0000000000000D+00  0.0000000000000D+00
   181  1.8000000000000D+00  0.0000000000000D+00  0.0000000000000D+00
   182  1.8100000000000D+00  0.0000000000000D+00  0.0000000000000D+00
   183  1.8200000000000D+00  0.0000000000000D+00  0.0000000000000D+00
   184  1.8300000000000D+00  0.0000000000000D+00  0.0000000000000D+00
   185  1.8400000000000D+00  0.0000000000000D+00  0.0000000000000D+00
   186  1.8500000000000D+00  0.0000000000000D+00  0.0000000000000D+00
   187  1.8600000000000D+00  0.0000000000000D+00  0.0000000000000D+00
   188  1.8700000000000D+00  0.0000000000000D+00  0.0000000000000D+00
   189  1.8800000000000D+00  0.0000000000000D+00  0.0000000000000D+00
   190  1.8900000000000D+00  0.0000000000000D+00  0.0000000000000D+00
   191  1.9000000000000D+00  0.0000000000000D+00  0.0000000000000D+00
   192  1.9100000000000D+00  0.0000000000000D+00  0.0000000000000D+00
   193  1.9200000000000D+00  0.0000000000000D+00  0.0000000000000D+00
   194  1.9300000000000D+00  0.0000000000000D+00  0.0000000000000D+00
   195  1.9400000000000D+00  0.0000000000000D+00  0.0000000000000D+00
   196  1.9500000000000D+00  0.0000000000000D+00  0.0000000000000D+00
   197  1.9600000000000D+00  0.0000000000000D+00  0.0000000000000D+00
   198  1.9700000000000D+00  0.0000000000000D+00  0.0000000000000D+00
   199  1.9800000000000D+00  0.0000000000000D+00  0.0000000000000D+00
   200  1.9900000000000D+00  0.0000000000000D+00  0.0000000000000D+00
   201  2.0000000000000D+00  0.0000000000000D+00  0.0000000000000D+00
   202  2.0100000000000D+00  0.0000000000000D+00  0.0000000000000D+00
   203  2.0200000000000D+00  0.0000000000000D+00  0.0000000000000D+00
   204  2.0300000000000D+00  0.0000000000000D+00  0.0000000000000D+00
   205  2.0400000000000D+00  0.0000000000000D+00  0.0000000000000D+00
   206  2.0500000000000D+00  0.0000000000000D+00  0.0000000000000D+00
   207  2.0600000000000D+00  0.0000000000000D+00  0.0000000000000D+00
   208  2.0700000000000D+00  0.0000000000000D+00  0.0000000000000D+00
   209  2.0800000000000D+00  0.0000000000000D+00  0.0000000000000D+00
   210  2.0900000000000D+00  0.0000000000000D+00  0.0000000000000D+00
   211  2.1000000000000D+00  0.0000000000000D+00  0.0000000000000D+00
   212  2.1100000000000D+00  0.0000000000000D+00  0.0000000000000D+00
   213  2.1200000000000D+00  0.0000000000000D+00  0.0000000000000D+00
   214  2.1300000000000D+00  0.0000000000000D+00  0.0000000000000D+00
   215  2.1400000000000D+00  0.0000000000000D+00  0.0000000000000D+00
   216  2.1500000000000D+00  0.0000000000000D+00  0.0000000000000D+00
   217  2.1600000000000D+00  0.0000000000000D+00  0.0000000000000D+00
   218  2.1700000000000D+00  0.0000000000000D+00  0.0000000000000D+00
   219  2.1800000000000D+00  0.0000000000000D+00  0.0000000000000D+00
   220  2.1900000000000D+00  0.0000000000000D+00  0.0000000000000D+00
   221  2.2000000000000D+00  0.0000000000000D+00  0.0000000000000D+00
   222  2.2100000000000D+00  0.0000000000000D+00  0.0000000000000D+00
   223  2.2200000000000D+00  0.0000000000000D+00  0.0000000000000D+00
   224  2.2300000000000D+00  0.0000000000000D+00  0.0000000000000D+00
   225  2.2400000000000D+00  0.0000000000000D+00  0.0000000000000D+00
   226  2.2500000000000D+00  0.0000000000000D+00  0.0000000000000D+00
   227  2.2600000000000D+00  0.0000000000000D+00  0.0000000000000D+00
   228  2.2700000000000D+00  0.0000000000000D+00  0.0000000000000D+00
   229  2.2800000000000D+00  0.0000000000000D+00  0.0000000000000D+00
   230  2.2900000000000D+00  0.0000000000000D+00  0.0000000000000D+00
   231  2.3000000000000D+00  0.0000000000000D+00  0.0000000000000D+00
   232  2.3100000000000D+00  0.0000000000000D+00  0.0000000000000D+00
   233  2.3200000000000D+00  0.0000000000000D+00  0.0000000000000D+00
   234  2.3300000000000D+00  0.0000000000000D+00  0.0000000000000D+00
   235  2.3400000000000D+00  0.0000000000000D+00  0.0000000000000D+00
   236  2.3500000000000D+00  0.0000000000000D+00  0.0000000000000D+00
   237  2.3600000000000D+00  0.0000000000000D+00  0.0000000000000D+00
   238  2.3700000000000D+00  0.0000000000000D+00  0.0000000000000D+00
   239  2.3800000000000D+00  0.0000000000000D+00  0.0000000000000D+00
   240  2.3900000000000D+00  0.0000000000000D+00  0.0000000000000D+00
   241  2.4000000000000D+00  0.0000000000000D+00  0.0000000000000D+00
   242  2.4100000000000D+00  0.0000000000000D+00  0.0000000000000D+00
   243  2.4200000000000D+00  0.0000000000000D+00  0.0000000000000D+00
   244  2.4300000000000D+00  0.0000000000000D+00  0.0000000000000D+00
   245  2.4400000000000D+00  0.0000000000000D+00  0.0000000000000D+00
   246  2.4500000000000D+00  0.0000000000000D+00  0.0000000000000D+00
   247  2.4600000000000D+00  0.0000000000000D+00  0.0000000000000D+00
   248  2.4700000000000D+00  0.0000000000000D+00  0.0000000000000D+00
   249  2.4800000000000D+00  0.0000000000000D+00  0.0000000000000D+00
   250  2.4900000000000D+00  0.0000000000000D+00  0.0000000000000D+00
   251  2.5000000000000D+00  0.0000000000000D+00  0.0000000000000D+00
   252  2.5100000000000D+00  0.0000000000000D+00  0.0000000000000D+00
   253  2.5200000000000D+00  0.0000000000000D+00  0.0000000000000D+00
   254  2.5300000000000D+00  0.0000000000000D+00  0.0000000000000D+00
   255  2.5400000000000D+00  0.0000000000000D+00  0.0000000000000D+00
   256  2.5500000000000D+00  0.0000000000000D+00  0.0000000000000D+00
   257  2.5600000000000D+00  0.0000000000000D+00  0.0000000000000D+00
   258  2.5700000000000D+00  0.0000000000000D+00  0.0000000000000D+00
   259  2.5800000000000D+00  0.0000000000000D+00  0.0000000000000D+00
   260  2.5900000000000D+00  0.0000000000000D+00  0.0000000000000D+00
   261  2.6000000000000D+00  0.0000000000000D+00  0.0000000000000D+00
   262  2.6100000000000D+00  0.0000000000000D+00  0.0000000000000D+00
   263  2.6200000000000D+00  0.0000000000000D+00  0.0000000000000D+00
   264  2.6300000000000D+00  0.0000000000000D+00  0.0000000000000D+00
   265  2.6400000000000D+00  0.0000000000000D+00  0.0000000000000D+00
   266  2.6500000000000D+00  0.0000000000000D+00  0.0000000000000D+00
   267  2.6600000000000D+00  0.0000000000000D+00  0.0000000000000D+00
   268  2.6700000000000D+00  0.0000000000000D+00  0.0000000000000D+00
   269  2.6800000000000D+00  0.0000000000000D+00  0.0000000000000D+00
   270  2.6900000000000D+00  0.0000000000000D+00  0.0000000000000D+00
   271  2.7000000000000D+00  0.0000000000000D+00  0.0000000000000D+00
   272  2.7100000000000D+00  0.0000000000000D+00  0.0000000000000D+00
   273  2.7200000000000D+00  0.0000000000000D+00  0.0000000000000D+00
   274  2.7300000000000D+00  0.0000000000000D+00  0.0000000000000D+00
   275  2.7400000000000D+00  0.0000000000000D+00  0.0000000000000D+00
   276  2.7500000000000D+00  0.0000000000000D+00  0.0000000000000D+00
   277  2.7600000000000D+00  0.0000000000000D+00  0.0000000000000D+00
   278  2.7700000000000D+00  0.0000000000000D+00  0.0000000000000D+00
   279  2.7800000000000D+00  0.0000000000000D+00  0.0000000000000D+00
   280  2.7900000000000D+00  0.0000000000000D+00  0.0000000000000D+00
   281  2.8000000000000D+00  0.0000000000000D+00  0.0000000000000D+00
   282  2.8100000000000D+00  0.0000000000000D+00  0.0000000000000D+00
   283  2.8200000000000D+00  0.0000000000000D+00  0.0000000000000D+00
   284  2.8300000000000D+00  0.0000000000000D+00  0.0000000000000D+00
   285  2.8400000000000D+00  0.0000000000000D+00  0.0000000000000D+00
   286  2.8500000000000D+00  0.0000000000000D+00  0.0000000000000D+00
   287  2.8600000000000D+00  0.0000000000000D+00  0.0000000000000D+00
   288  2.8700000000000D+00  0.0000000000000D+00  0.0000000000000D+00
   289  2.8800000000000D+00  0.0000000000000D+00  0.0000000000000D+00
   290  2.8900000000000D+00  0.0000000000000D+00  0.0000000000000D+00
   291  2.9000000000000D+00  0.0000000000000D+00  0.0000000000000D+00
   292  2.9100000000000D+00  0.0000000000000D+00  0.0000000000000D+00
   293  2.9200000000000D+00  0.0000000000000D+00  0.0000000000000D+00
   294  2.9300000000000D+00  0.0000000000000D+00  0.0000000000000D+00
   295  2.9400000000000D+00  0.0000000000000D+00  0.0000000000000D+00
   296  2.9500000000000D+00  0.0000000000000D+00  0.0000000000000D+00
   297  2.9600000000000D+00  0.0000000000000D+00  0.0000000000000D+00
   298  2.9700000000000D+00  0.0000000000000D+00  0.0000000000000D+00
   299  2.9800000000000D+00  0.0000000000000D+00  0.0000000000000D+00
   300  2.9900000000000D+00  0.0000000000000D+00  0.0000000000000D+00
   301  3.0000000000000D+00  0.0000000000000D+00  0.0000000000000D+00
   302  3.0100000000000D+00  0.0000000000000D+00  0.0000000000000D+00
   303  3.0200000000000D+00  0.0000000000000D+00  0.0000000000000D+00
   304  3.0300000000000D+00  0.0000000000000D+00  0.0000000000000D+00
   305  3.0400000000000D+00  0.0000000000000D+00  0.0000000000000D+00
   306  3.0500000000000D+00  0.0000000000000D+00  0.0000000000000D+00
   307  3.0600000000000D+00  0.0000000000000D+00  0.0000000000000D+00
   308  3.0700000000000D+00  0.0000000000000D+00  0.0000000000000D+00
   309  3.0800000000000D+00  0.0000000000000D+00  0.0000000000000D+00
   310  3.0900000000000D+00  0.0000000000000D+00  0.0000000000000D+00
   311  3.1000000000000D+00  0.0000000000000D+00  0.0000000000000D+00
   312  3.1100000000000D+00  0.0000000000000D+00  0.0000000000000D+00
   313  3.1200000000000D+00  0.0000000000000D+00  0.0000000000000D+00
   314  3.1300000000000D+00  0.0000000000000D+00  0.0000000000000D+00
   315  3.1400000000000D+00  0.0000000000000D+00  0.0000000000000D+00
   316  3.1500000000000D+00  0.0000000000000D+00  0.0000000000000D+00
   317  3.1600000000000D+00  0.0000000000000D+00  0.0000000000000D+00
   318  3.1700000000000D+00  0.0000000000000D+00  0.0000000000000D+00
   319  3.1800000000000D+00  0.0000000000000D+00  0.0000000000000D+00
   320  3.1900000000000D+00  0.0000000000000D+00  0.0000000000000D+00
   321  3.2000000000000D+00  0.0000000000000D+00  0.0000000000000D+00
   322  3.2100000000000D+00  0.0000000000000D+00  0.0000000000000D+00
   323  3.2200000000000D+00  0.0000000000000D+00  0.0000000000000D+00
   324  3.2300000000000D+00  0.0000000000000D+00  0.0000000000000D+00
   325  3.2400000000000D+00  0.0000000000000D+00  0.0000000000000D+00
   326  3.2500000000000D+00  0.0000000000000D+00  0.0000000000000D+00
   327  3.2600000000000D+00  0.0000000000000D+00  0.0000000000000D+00
   328  3.2700000000000D+00  0.0000000000000D+00  0.0000000000000D+00
   329  3.2800000000000D+00  0.0000000000000D+00  0.0000000000000D+00
   330  3.2900000000000D+00  0.0000000000000D+00  0.0000000000000D+00
   331  3.3000000000000D+00  0.0000000000000D+00  0.0000000000000D+00
   332  3.3100000000000D+00  0.0000000000000D+00  0.0000000000000D+00
   333  3.3200000000000D+00  0.0000000000000D+00  0.0000000000000D+00
   334  3.3300000000000D+00  0.0000000000000D+00  0.0000000000000D+00
   335  3.3400000000000D+00  0.0000000000000D+00  0.0000000000000D+00
   336  3.3500000000000D+00  0.0000000000000D+00  0.0000000000000D+00
   337  3.3600000000000D+00  0.0000000000000D+00  0.0000000000000D+00
   338  3.3700000000000D+00  0.0000000000000D+00  0.0000000000000D+00
   339  3.3800000000000D+00  0.0000000000000D+00  0.0000000000000D+00
   340  3.3900000000000D+00  0.0000000000000D+00  0.0000000000000D+00
   341  3.4000000000000D+00  0.0000000000000D+00  0.0000000000000D+00
   342  3.4100000000000D+00  0.0000000000000D+00  0.0000000000000D+00
   343  3.4200000000000D+00  0.0000000000000D+00  0.0000000000000D+00
   344  3.4300000000000D+00  0.0000000000000D+00  0.0000000000000D+00
   345  3.4400000000000D+00  0.0000000000000D+00  0.0000000000000D+00
   346  3.4500000000000D+00  0.0000000000000D+00  0.0000000000000D+00
   347  3.4600000000000D+00  0.0000000000000D+00  0.0000000000000D+00
   348  3.4700000000000D+00  0.0000000000000D+00  0.0000000000000D+00
   349  3.4800000000000D+00  0.0000000000000D+00  0.0000000000000D+00
   350  3.4900000000000D+00  0.0000000000000D+00  0.0000000000000D+00
   351  3.5000000000000D+00  0.0000000000000D+00  0.0000000000000D+00
   352  3.5100000000000D+00  0.0000000000000D+00  0.0000000000000D+00
   353  3.5200000000000D+00  0.0000000000000D+00  0.0000000000000D+00
   354  3.5300000000000D+00  0.0000000000000D+00  0.0000000000000D+00
   355  3.5400000000000D+00  0.0000000000000D+00  0.0000000000000D+00
   356  3.5500000000000D+00  0.0000000000000D+00  0.0000000000000D+00
   357  3.5600000000000D+00  0.0000000000000D+00  0.0000000000000D+00
   358  3.5700000000000D+00  0.0000000000000D+00  0.0000000000000D+00
   359  3.5800000000000D+00  0.0000000000000D+00  0.0000000000000D+00
   360  3.5900000000000D+00  0.0000000000000D+00  0.0000000000000D+00
   361  3.6000000000000D+00  0.0000000000000D+00  0.0000000000000D+00
   362  3.6100000000000D+00  0.0000000000000D+00  0.0000000000000D+00
   363  3.6200000000000D+00  0.0000000000000D+00  0.0000000000000D+00
   364  3.6300000000000D+00  0.0000000000000D+00  0.0000000000000D+00
   365  3.6400000000000D+00  0.0000000000000D+00  0.0000000000000D+00
   366  3.6500000000000D+00  0.0000000000000D+00  0.0000000000000D+00
   367  3.6600000000000D+00  0.0000000000000D+00  0.0000000000000D+00
   368  3.6700000000000D+00  0.0000000000000D+00  0.0000000000000D+00
   369  3.6800000000000D+00  0.0000000000000D+00  0.0000000000000D+00
   370  3.6900000000000D+00  0.0000000000000D+00  0.0000000000000D+00
   371  3.7000000000000D+00  0.0000000000000D+00  0.0000000000000D+00
   372  3.7100000000000D+00  0.0000000000000D+00  0.0000000000000D+00
   373  3.7200000000000D+00  0.0000000000000D+00  0.0000000000000D+00
   374  3.7300000000000D+00  0.0000000000000D+00  0.0000000000000D+00
   375  3.7400000000000D+00  0.0000000000000D+00  0.0000000000000D+00
   376  3.7500000000000D+00  0.0000000000000D+00  0.0000000000000D+00
   377  3.7600000000000D+00  0.0000000000000D+00  0.0000000000000D+00
   378  3.7700000000000D+00  0.0000000000000D+00  0.0000000000000D+00
   379  3.7800000000000D+00  0.0000000000000D+00  0.0000000000000D+00
   380  3.7900000000000D+00  0.0000000000000D+00  0.0000000000000D+00
   381  3.8000000000000D+00  0.0000000000000D+00  0.0000000000000D+00
   382  3.8100000000000D+00  0.0000000000000D+00  0.0000000000000D+00
   383  3.8200000000000D+00  0.0000000000000D+00  0.0000000000000D+00
   384  3.8300000000000D+00  0.0000000000000D+00  0.0000000000000D+00
   385  3.8400000000000D+00  0.0000000000000D+00  0.0000000000000D+00
   386  3.8500000000000D+00  0.0000000000000D+00  0.0000000000000D+00
   387  3.8600000000000D+00  0.0000000000000D+00  0.0000000000000D+00
   388  3.8700000000000D+00  0.0000000000000D+00  0.0000000000000D+00
   389  3.8800000000000D+00  0.0000000000000D+00  0.0000000000000D+00
   390  3.8900000000000D+00  0.0000000000000D+00  0.0000000000000D+00
   391  3.9000000000000D+00  0.0000000000000D+00  0.0000000000000D+00
   392  3.9100000000000D+00  0.0000000000000D+00  0.0000000000000D+00
   393  3.9200000000000D+00  0.0000000000000D+00  0.0000000000000D+00
   394  3.9300000000000D+00  0.0000000000000D+00  0.0000000000000D+00
   395  3.9400000000000D+00  0.0000000000000D+00  0.0000000000000D+00
   396  3.9500000000000D+00  0.0000000000000D+00  0.0000000000000D+00
   397  3.9600000000000D+00  0.0000000000000D+00  0.0000000000000D+00
   398  3.9700000000000D+00  0.0000000000000D+00  0.0000000000000D+00
   399  3.9800000000000D+00  0.0000000000000D+00  0.0000000000000D+00
   400  3.9900000000000D+00  0.0000000000000D+00  0.0000000000000D+00
   401  4.0000000000000D+00  0.0000000000000D+00  0.0000000000000D+00
   402  4.0100000000000D+00  0.0000000000000D+00  0.0000000000000D+00
   403  4.0200000000000D+00  0.0000000000000D+00  0.0000000000000D+00
   404  4.0300000000000D+00  0.0000000000000D+00  0.0000000000000D+00
   405  4.0400000000000D+00  0.0000000000000D+00  0.0000000000000D+00
   406  4.0500000000000D+00  0.0000000000000D+00  0.0000000000000D+00
   407  4.0600000000000D+00  0.0000000000000D+00  0.0000000000000D+00
   408  4.0700000000000D+00  0.0000000000000D+00  0.0000000000000D+00
   409  4.0800000000000D+00  0.0000000000000D+00  0.0000000000000D+00
   410  4.0900000000000D+00  0.0000000000000D+00  0.0000000000000D+00
   411  4.1000000000000D+00  0.0000000000000D+00  0.0000000000000D+00
   412  4.1100000000000D+00  0.0000000000000D+00  0.0000000000000D+00
   413  4.1200000000000D+00  0.0000000000000D+00  0.0000000000000D+00
   414  4.1300000000000D+00  0.0000000000000D+00  0.0000000000000D+00
   415  4.1400000000000D+00  0.0000000000000D+00  0.0000000000000D+00
   416  4.1500000000000D+00  0.0000000000000D+00  0.0000000000000D+00
   417  4.1600000000000D+00  0.0000000000000D+00  0.0000000000000D+00
   418  4.1700000000000D+00  0.0000000000000D+00  0.0000000000000D+00
   419  4.1800000000000D+00  0.0000000000000D+00  0.0000000000000D+00
   420  4.1900000000000D+00  0.0000000000000D+00  0.0000000000000D+00
   421  4.2000000000000D+00  0.0000000000000D+00  0.0000000000000D+00
   422  4.2100000000000D+00  0.0000000000000D+00  0.0000000000000D+00
   423  4.2200000000000D+00  0.0000000000000D+00  0.0000000000000D+00