F     ONCVPSP-3.3.1  r_core=   1.60379   1.68217
      9.0000      7.0000      210904    zatom,zion,pspd
     8      11   1     4   600     0    pspcod,pspxc,lmax,lloc,mmax,r2well
  5.99000000  0.00000000  0.00000000    rchrg fchrg qchrg
     2     2     0     0    nproj
     3     1           extension_switch
     3     0     0    nprojso
   0                         8.9450677893162D-01  5.5860261018410D+00
     1  0.0000000000000D+00 -3.8554159864645D-10  1.4313517038289D-10
     2  1.0000000000000D-02 -2.4728113267275D-02  9.0513512255657D-02
     3  2.0000000000000D-02 -4.9289489783024D-02  1.8078211821990D-01
     4  3.0000000000000D-02 -7.3517659692163D-02  2.7056151848045D-01
     5  4.0000000000000D-02 -9.7246692431501D-02  3.5960862815173D-01
     6  5.0000000000000D-02 -1.2031148002387D-01  4.4768218602212D-01
     7  6.0000000000000D-02 -1.4254803647311D-01  5.3454336585886D-01
     8  7.0000000000000D-02 -1.6379381816866D-01  6.1995639041924D-01
     9  8.0000000000000D-02 -1.8388806982301D-01  7.0368914857376D-01
    10  9.0000000000000D-02 -2.0267219999167D-01  7.8551381577136D-01
    11  1.0000000000000D-01 -2.1999018966980D-01  8.6520747787146D-01
    12  1.1000000000000D-01 -2.3568903682895D-01  9.4255275813534D-01
    13  1.2000000000000D-01 -2.4961923905835D-01  1.0173384469127D+00
    14  1.3000000000000D-01 -2.6163531571741D-01  1.0893601332825D+00
    15  1.4000000000000D-01 -2.7159637019812D-01  1.1584208376130D+00
    16  1.5000000000000D-01 -2.7936669204797D-01  1.2243316437009D+00
    17  1.6000000000000D-01 -2.8481639782678D-01  1.2869123288335D+00
    18  1.7000000000000D-01 -2.8782210867533D-01  1.3459919897997D+00
    19  1.8000000000000D-01 -2.8826766167117D-01  1.4014096625608D+00
    20  1.9000000000000D-01 -2.8604485114960D-01  1.4530149329761D+00
    21  2.0000000000000D-01 -2.8105419528767D-01  1.5006685356814D+00
    22  2.1000000000000D-01 -2.7320572239688D-01  1.5442429379305D+00
    23  2.2000000000000D-01 -2.6241977055957D-01  1.5836229049440D+00
    24  2.3000000000000D-01 -2.4862779348517D-01  1.6187060430714D+00
    25  2.4000000000000D-01 -2.3177316476672D-01  1.6494033168558D+00
    26  2.5000000000000D-01 -2.1181197209711D-01  1.6756395359172D+00
    27  2.6000000000000D-01 -1.8871379246685D-01  1.6973538074269D+00
    28  2.7000000000000D-01 -1.6246243892189D-01  1.7144999498430D+00
    29  2.8000000000000D-01 -1.3305666911746D-01  1.7270468635270D+00
    30  2.9000000000000D-01 -1.0051084567216D-01  1.7349788538442D+00
    31  3.0000000000000D-01 -6.4855538208705D-02  1.7382959023994D+00
    32  3.1000000000000D-01 -2.6138056972307D-02  1.7370138821422D+00
    33  3.2000000000000D-01  1.5577091954012D-02  1.7311647122276D+00
    34  3.3000000000000D-01  6.0207839561945D-02  1.7207964487077D+00
    35  3.4000000000000D-01  1.0765428429911D-01  1.7059733073844D+00
    36  3.5000000000000D-01  1.5779852874695D-01  1.6867756154552D+00
    37  3.6000000000000D-01  2.1050463078565D-01  1.6632996889367D+00
    38  3.7000000000000D-01  2.6561867667429D-01  1.6356576332567D+00
    39  3.8000000000000D-01  3.2296898259556D-01  1.6039770648572D+00
    40  3.9000000000000D-01  3.8236643022298D-01  1.5684007521471D+00
    41  4.0000000000000D-01  4.4360494077310D-01  1.5290861746810D+00
    42  4.1000000000000D-01  5.0646209081546D-01  1.4862050000171D+00
    43  4.2000000000000D-01  5.7069987183817D-01  1.4399424783108D+00
    44  4.3000000000000D-01  6.3606559421980D-01  1.3904967553389D+00
    45  4.4000000000000D-01  7.0229293485149D-01  1.3380781053036D+00
    46  4.5000000000000D-01  7.6910312619915D-01  1.2829080854365D+00
    47  4.6000000000000D-01  8.3620628311227D-01  1.2252186151056D+00
    48  4.7000000000000D-01  9.0330286218401D-01  1.1652509828109D+00
    49  4.8000000000000D-01  9.7008524696833D-01  1.1032547851339D+00
    50  4.9000000000000D-01  1.0362394508746D+00  1.0394868023751D+00
    51  5.0000000000000D-01  1.1014469281100D+00  9.7420981626322D-01
    52  5.1000000000000D-01  1.1653864816391D+00  9.0769137574688D-01
    53  5.2000000000000D-01  1.2277362557923D+00  8.4020251746918D-01
    54  5.3000000000000D-01  1.2881757999049D+00  7.7201644808358D-01
    55  5.4000000000000D-01  1.3463881882089D+00  7.0340719607573D-01
    56  5.5000000000000D-01  1.4020621801584D+00  6.3464824121447D-01
    57  5.6000000000000D-01  1.4548944044489D+00  5.6601113015525D-01
    58  5.7000000000000D-01  1.5045915492114D+00  4.9776408705700D-01
    59  5.8000000000000D-01  1.5508725402328D+00  4.3017062834407D-01
    60  5.9000000000000D-01  1.5934706885780D+00  3.6348819094464D-01
    61  6.0000000000000D-01  1.6321357886899D+00  2.9796678346162D-01
    62  6.1000000000000D-01  1.6666361479067D+00  2.3384766978037D-01
    63  6.2000000000000D-01  1.6967605283858D+00  1.7136209458616D-01
    64  6.3000000000000D-01  1.7223199826483D+00  1.1073006015310D-01
    65  6.4000000000000D-01  1.7431495643650D+00  5.2159163575621D-02
    66  6.5000000000000D-01  1.7591098965908D+00 -4.1564966575923D-03
    67  6.6000000000000D-01  1.7700885804158D+00 -5.8037336196454D-02
    68  6.7000000000000D-01  1.7760014279294D+00 -1.0931921434018D-01
    69  6.8000000000000D-01  1.7767935044861D+00 -1.5785426989550D-01
    70  6.9000000000000D-01  1.7724399665040D+00 -2.0351165631469D-01
    71  7.0000000000000D-01  1.7629466824101D+00 -2.4617816967346D-01
    72  7.1000000000000D-01  1.7483506258476D+00 -2.8575876373156D-01
    73  7.2000000000000D-01  1.7287200318885D+00 -3.2217694705743D-01
    74  7.3000000000000D-01  1.7041543086985D+00 -3.5537505797497D-01
    75  7.4000000000000D-01  1.6747836988921D+00 -3.8531441390779D-01
    76  7.5000000000000D-01  1.6407686866633D+00 -4.1197533254122D-01
    77  7.6000000000000D-01  1.6022991486468D+00 -4.3535702308335D-01
    78  7.7000000000000D-01  1.5595932483777D+00 -4.5547734678717D-01
    79  7.8000000000000D-01  1.5128960760960D+00 -4.7237244676975D-01
    80  7.9000000000000D-01  1.4624780375151D+00 -4.8609624803795D-01
    81  8.0000000000000D-01  1.4086329969884D+00 -4.9671982948526D-01
    82  8.1000000000000D-01  1.3516761822607D+00 -5.0433067045662D-01
    83  8.2000000000000D-01  1.2919418596529D+00 -5.0903177527658D-01
    84  8.3000000000000D-01  1.2297807900844D+00 -5.1094067989369D-01
    85  8.4000000000000D-01  1.1655574777700D+00 -5.1018834550300D-01
    86  8.5000000000000D-01  1.0996472247176D+00 -5.0691794466076D-01
    87  8.6000000000000D-01  1.0324330052885D+00 -5.0128354599514D-01
    88  8.7000000000000D-01  9.6430217604654D-01 -4.9344870413778D-01
    89  8.8000000000000D-01  8.9564303691214D-01 -4.8358496194803D-01
    90  8.9000000000000D-01  8.2684126023003D-01 -4.7187027247046D-01
    91  9.0000000000000D-01  7.5827620476800D-01 -4.5848734835419D-01
    92  9.1000000000000D-01  6.9031713186465D-01 -4.4362194666574D-01
    93  9.2000000000000D-01  6.2331934094988D-01 -4.2746109714589D-01
    94  9.3000000000000D-01  5.5762024146584D-01 -4.1019128199362D-01
    95  9.4000000000000D-01  4.9353537782472D-01 -3.9199657520824D-01
    96  9.5000000000000D-01  4.3135442194181D-01 -3.7305674902621D-01
    97  9.6000000000000D-01  3.7133715878431D-01 -3.5354535753326D-01
    98  9.7000000000000D-01  3.1370943316884D-01 -3.3362779368022D-01
    99  9.8000000000000D-01  2.5865936942540D-01 -3.1345939900367D-01
   100  9.9000000000000D-01  2.0633262934822D-01 -2.9318333357762D-01
   101  1.0000000000000D+00  1.5683950591914D-01 -2.7293125882093D-01
   102  1.0100000000000D+00  1.1026768880186D-01 -2.5282567206174D-01
   103  1.0200000000000D+00  6.6688289378696D-02 -2.3298095002172D-01
   104  1.0300000000000D+00  2.6154278404313D-02 -2.1350271468053D-01
   105  1.0400000000000D+00 -1.1299407017092D-02 -1.9448760824805D-01
   106  1.0500000000000D+00 -4.5655895037816D-02 -1.7602307715910D-01
   107  1.0600000000000D+00 -7.6916239808519D-02 -1.5818723196840D-01
   108  1.0700000000000D+00 -1.0509911833258D-01 -1.4104878210913D-01
   109  1.0800000000000D+00 -1.3024037344247D-01 -1.2466704299307D-01
   110  1.0900000000000D+00 -1.5239240970652D-01 -1.0909201336013D-01
   111  1.1000000000000D+00 -1.7162345034295D-01 -9.4364520254478D-02
   112  1.1100000000000D+00 -1.8801666471341D-01 -8.0516428380224D-02
   113  1.1200000000000D+00 -2.0166917704725D-01 -6.7570910115732D-02
   114  1.1300000000000D+00 -2.1269096815842D-01 -5.5542771985047D-02
   115  1.1400000000000D+00 -2.2120368285934D-01 -4.4438832969832D-02
   116  1.1500000000000D+00 -2.2733935652497D-01 -3.4258349693303D-02
   117  1.1600000000000D+00 -2.3123907503974D-01 -2.4993483144589D-02
   118  1.1700000000000D+00 -2.3305158274531D-01 -1.6629801400713D-02
   119  1.1800000000000D+00 -2.3293185332721D-01 -9.1468126217052D-03
   120  1.1900000000000D+00 -2.3103963885086D-01 -2.5185224182940D-03
   121  1.2000000000000D+00 -2.2753801209450D-01  3.2859903541608D-03
   122  1.2100000000000D+00 -2.2259191695776D-01  8.3019852594582D-03
   123  1.2200000000000D+00 -2.1636674240501D-01  1.2568465535451D-02
   124  1.2300000000000D+00 -2.0902693281873D-01  1.6127582322426D-02
   125  1.2400000000000D+00 -2.0073464829587D-01  1.9024043453122D-02
   126  1.2500000000000D+00 -1.9164849150596D-01  2.1304533380160D-02
   127  1.2600000000000D+00 -1.8192230738966D-01  2.3017147586721D-02
   128  1.2700000000000D+00 -1.7170406785628D-01  2.4210846642190D-02
   129  1.2800000000000D+00 -1.6113485523731D-01  2.4934935562763D-02
   130  1.2900000000000D+00 -1.5034794960721D-01  2.5238571413934D-02
   131  1.3000000000000D+00 -1.3946802714454D-01  2.5170302657216D-02
   132  1.3100000000000D+00 -1.2861047501478D-01  2.4777643203503D-02
   133  1.3200000000000D+00 -1.1788082918496D-01  2.4106684400350D-02
   134  1.3300000000000D+00 -1.0737433689728D-01  2.3201746583873D-02
   135  1.3400000000000D+00 -9.7175644955027D-02  2.2105071679661D-02
   136  1.3500000000000D+00 -8.7358613872612D-02  2.0856557837444D-02
   137  1.3600000000000D+00 -7.7986256203506D-02  1.9493536496597D-02
   138  1.3700000000000D+00 -6.9110797220645D-02  1.8050592253497D-02
   139  1.3800000000000D+00 -6.0773851746964D-02  1.6559424272461D-02
   140  1.3900000000000D+00 -5.3006712922214D-02  1.5048748712508D-02
   141  1.4000000000000D+00 -4.5830745740393D-02  1.3544240568260D-02
   142  1.4100000000000D+00 -3.9257876163452D-02  1.2068512514566D-02
   143  1.4200000000000D+00 -3.3291168875150D-02  1.0641129243160D-02
   144  1.4300000000000D+00 -2.7925481447006D-02  9.2786537143714D-03
   145  1.4400000000000D+00 -2.3148185661776D-02  7.9947228855872D-03
   146  1.4500000000000D+00 -1.8939943980171D-02  6.8001494364220D-03
   147  1.4600000000000D+00 -1.5275529102469D-02  5.7030458588147D-03
   148  1.4700000000000D+00 -1.2124674789351D-02  4.7089675356295D-03
   149  1.4800000000000D+00 -9.4529449820539D-03  3.8210706927363D-03
   150  1.4900000000000D+00 -7.2226090507942D-03  3.0402816405367D-03
   151  1.5000000000000D+00 -5.3935103346874D-03  2.3654732191821D-03
   152  1.5100000000000D+00 -3.9239166028947D-03  1.7936449256213D-03
   153  1.5200000000000D+00 -2.7713390384464D-03  1.3201025034890D-03
   154  1.5300000000000D+00 -1.8933113886140D-03  9.3863427270536D-04
   155  1.5400000000000D+00 -1.2481145132446D-03  6.4167956317272D-04
   156  1.5500000000000D+00 -7.9557123220131D-04  4.2053809096107D-04
   157  1.5600000000000D+00 -4.9729045939409D-04  2.6537934712659D-04
   158  1.5700000000000D+00 -3.1511658001209D-04  1.6447686045084D-04
   159  1.5800000000000D+00 -2.1989952060691D-04  1.0789960046522D-04
   160  1.5900000000000D+00 -1.9509692910829D-04  8.9233388300904D-05
   161  1.6000000000000D+00 -1.8849991048901D-04  8.3839878056567D-05
   162  1.6100000000000D+00 -1.2372453189511D-04  5.4800170455928D-05
   163  1.6200000000000D+00 -2.4577648825202D-05  1.0889499991702D-05
   164  1.6300000000000D+00  1.8273545949714D-05 -8.0490316923769D-06
   165  1.6400000000000D+00  5.9177575133772D-06 -2.6051856126604D-06
   166  1.6500000000000D+00 -4.0200797158269D-06  1.7686241520648D-06
   167  1.6600000000000D+00 -1.2912418417232D-06  5.6776232234786D-07
   168  1.6700000000000D+00  4.8241554382064D-07 -2.1412747035593D-07
   169  1.6800000000000D+00  1.5763695074523D-07 -6.9969556184635D-08
   170  1.6900000000000D+00  0.0000000000000D+00  0.0000000000000D+00
   171  1.7000000000000D+00  0.0000000000000D+00  0.0000000000000D+00
   172  1.7100000000000D+00  0.0000000000000D+00  0.0000000000000D+00
   173  1.7200000000000D+00  0.0000000000000D+00  0.0000000000000D+00
   174  1.7300000000000D+00  0.0000000000000D+00  0.0000000000000D+00
   175  1.7400000000000D+00  0.0000000000000D+00  0.0000000000000D+00
   176  1.7500000000000D+00  0.0000000000000D+00  0.0000000000000D+00
   177  1.7600000000000D+00  0.0000000000000D+00  0.0000000000000D+00
   178  1.7700000000000D+00  0.0000000000000D+00  0.0000000000000D+00
   179  1.7800000000000D+00  0.0000000000000D+00  0.0000000000000D+00
   180  1.7900000000000D+00  0.0000000000000D+00  0.0000000000000D+00
   181  1.8000000000000D+00  0.0000000000000D+00  0.0000000000000D+00
   182  1.8100000000000D+00  0.0000000000000D+00  0.0000000000000D+00
   183  1.8200000000000D+00  0.0000000000000D+00  0.0000000000000D+00
   184  1.8300000000000D+00  0.0000000000000D+00  0.0000000000000D+00
   185  1.8400000000000D+00  0.0000000000000D+00  0.0000000000000D+00
   186  1.8500000000000D+00  0.0000000000000D+00  0.0000000000000D+00
   187  1.8600000000000D+00  0.0000000000000D+00  0.0000000000000D+00
   188  1.8700000000000D+00  0.0000000000000D+00  0.0000000000000D+00
   189  1.8800000000000D+00  0.0000000000000D+00  0.0000000000000D+00
   190  1.8900000000000D+00  0.0000000000000D+00  0.0000000000000D+00
   191  1.9000000000000D+00  0.0000000000000D+00  0.0000000000000D+00
   192  1.9100000000000D+00  0.0000000000000D+00  0.0000000000000D+00
   193  1.9200000000000D+00  0.0000000000000D+00  0.0000000000000D+00
   194  1.9300000000000D+00  0.0000000000000D+00  0.0000000000000D+00
   195  1.9400000000000D+00  0.0000000000000D+00  0.0000000000000D+00
   196  1.9500000000000D+00  0.0000000000000D+00  0.0000000000000D+00
   197  1.9600000000000D+00  0.0000000000000D+00  0.0000000000000D+00
   198  1.9700000000000D+00  0.0000000000000D+00  0.0000000000000D+00
   199  1.9800000000000D+00  0.0000000000000D+00  0.0000000000000D+00
   200  1.9900000000000D+00  0.0000000000000D+00  0.0000000000000D+00
   201  2.0000000000000D+00  0.0000000000000D+00  0.0000000000000D+00
   202  2.0100000000000D+00  0.0000000000000D+00  0.0000000000000D+00
   203  2.0200000000000D+00  0.0000000000000D+00  0.0000000000000D+00
   204  2.0300000000000D+00  0.0000000000000D+00  0.0000000000000D+00
   205  2.0400000000000D+00  0.0000000000000D+00  0.0000000000000D+00
   206  2.0500000000000D+00  0.0000000000000D+00  0.0000000000000D+00
   207  2.0600000000000D+00  0.0000000000000D+00  0.0000000000000D+00
   208  2.0700000000000D+00  0.0000000000000D+00  0.0000000000000D+00
   209  2.0800000000000D+00  0.0000000000000D+00  0.0000000000000D+00
   210  2.0900000000000D+00  0.0000000000000D+00  0.0000000000000D+00
   211  2.1000000000000D+00  0.0000000000000D+00  0.0000000000000D+00
   212  2.1100000000000D+00  0.0000000000000D+00  0.0000000000000D+00
   213  2.1200000000000D+00  0.0000000000000D+00  0.0000000000000D+00
   214  2.1300000000000D+00  0.0000000000000D+00  0.0000000000000D+00
   215  2.1400000000000D+00  0.0000000000000D+00  0.0000000000000D+00
   216  2.1500000000000D+00  0.0000000000000D+00  0.0000000000000D+00
   217  2.1600000000000D+00  0.0000000000000D+00  0.0000000000000D+00
   218  2.1700000000000D+00  0.0000000000000D+00  0.0000000000000D+00
   219  2.1800000000000D+00  0.0000000000000D+00  0.0000000000000D+00
   220  2.1900000000000D+00  0.0000000000000D+00  0.0000000000000D+00
   221  2.2000000000000D+00  0.0000000000000D+00  0.0000000000000D+00
   222  2.2100000000000D+00  0.0000000000000D+00  0.0000000000000D+00
   223  2.2200000000000D+00  0.0000000000000D+00  0.0000000000000D+00
   224  2.2300000000000D+00  0.0000000000000D+00  0.0000000000000D+00
   225  2.2400000000000D+00  0.0000000000000D+00  0.0000000000000D+00
   226  2.2500000000000D+00  0.0000000000000D+00  0.0000000000000D+00
   227  2.2600000000000D+00  0.0000000000000D+00  0.0000000000000D+00
   228  2.2700000000000D+00  0.0000000000000D+00  0.0000000000000D+00
   229  2.2800000000000D+00  0.0000000000000D+00  0.0000000000000D+00
   230  2.2900000000000D+00  0.0000000000000D+00  0.0000000000000D+00
   231  2.3000000000000D+00  0.0000000000000D+00  0.0000000000000D+00
   232  2.3100000000000D+00  0.0000000000000D+00  0.0000000000000D+00
   233  2.3200000000000D+00  0.0000000000000D+00  0.0000000000000D+00
   234  2.3300000000000D+00  0.0000000000000D+00  0.0000000000000D+00
   235  2.3400000000000D+00  0.0000000000000D+00  0.0000000000000D+00
   236  2.3500000000000D+00  0.0000000000000D+00  0.0000000000000D+00
   237  2.3600000000000D+00  0.0000000000000D+00  0.0000000000000D+00
   238  2.3700000000000D+00  0.0000000000000D+00  0.0000000000000D+00
   239  2.3800000000000D+00  0.0000000000000D+00  0.0000000000000D+00
   240  2.3900000000000D+00  0.0000000000000D+00  0.0000000000000D+00
   241  2.4000000000000D+00  0.0000000000000D+00  0.0000000000000D+00
   242  2.4100000000000D+00  0.0000000000000D+00  0.0000000000000D+00
   243  2.4200000000000D+00  0.0000000000000D+00  0.0000000000000D+00
   244  2.4300000000000D+00  0.0000000000000D+00  0.0000000000000D+00
   245  2.4400000000000D+00  0.0000000000000D+00  0.0000000000000D+00
   246  2.4500000000000D+00  0.0000000000000D+00  0.0000000000000D+00
   247  2.4600000000000D+00  0.0000000000000D+00  0.0000000000000D+00
   248  2.4700000000000D+00  0.0000000000000D+00  0.0000000000000D+00
   249  2.4800000000000D+00  0.0000000000000D+00  0.0000000000000D+00
   250  2.4900000000000D+00  0.0000000000000D+00  0.0000000000000D+00
   251  2.5000000000000D+00  0.0000000000000D+00  0.0000000000000D+00
   252  2.5100000000000D+00  0.0000000000000D+00  0.0000000000000D+00
   253  2.5200000000000D+00  0.0000000000000D+00  0.0000000000000D+00
   254  2.5300000000000D+00  0.0000000000000D+00  0.0000000000000D+00
   255  2.5400000000000D+00  0.0000000000000D+00  0.0000000000000D+00
   256  2.5500000000000D+00  0.0000000000000D+00  0.0000000000000D+00
   257  2.5600000000000D+00  0.0000000000000D+00  0.0000000000000D+00
   258  2.5700000000000D+00  0.0000000000000D+00  0.0000000000000D+00
   259  2.5800000000000D+00  0.0000000000000D+00  0.0000000000000D+00
   260  2.5900000000000D+00  0.0000000000000D+00  0.0000000000000D+00
   261  2.6000000000000D+00  0.0000000000000D+00  0.0000000000000D+00
   262  2.6100000000000D+00  0.0000000000000D+00  0.0000000000000D+00
   263  2.6200000000000D+00  0.0000000000000D+00  0.0000000000000D+00
   264  2.6300000000000D+00  0.0000000000000D+00  0.0000000000000D+00
   265  2.6400000000000D+00  0.0000000000000D+00  0.0000000000000D+00
   266  2.6500000000000D+00  0.0000000000000D+00  0.0000000000000D+00
   267  2.6600000000000D+00  0.0000000000000D+00  0.0000000000000D+00
   268  2.6700000000000D+00  0.0000000000000D+00  0.0000000000000D+00
   269  2.6800000000000D+00  0.0000000000000D+00  0.0000000000000D+00
   270  2.6900000000000D+00  0.0000000000000D+00  0.0000000000000D+00
   271  2.7000000000000D+00  0.0000000000000D+00  0.0000000000000D+00
   272  2.7100000000000D+00  0.0000000000000D+00  0.0000000000000D+00
   273  2.7200000000000D+00  0.0000000000000D+00  0.0000000000000D+00
   274  2.7300000000000D+00  0.0000000000000D+00  0.0000000000000D+00
   275  2.7400000000000D+00  0.0000000000000D+00  0.0000000000000D+00
   276  2.7500000000000D+00  0.0000000000000D+00  0.0000000000000D+00
   277  2.7600000000000D+00  0.0000000000000D+00  0.0000000000000D+00
   278  2.7700000000000D+00  0.0000000000000D+00  0.0000000000000D+00
   279  2.7800000000000D+00  0.0000000000000D+00  0.0000000000000D+00
   280  2.7900000000000D+00  0.0000000000000D+00  0.0000000000000D+00
   281  2.8000000000000D+00  0.0000000000000D+00  0.0000000000000D+00
   282  2.8100000000000D+00  0.0000000000000D+00  0.0000000000000D+00
   283  2.8200000000000D+00  0.0000000000000D+00  0.0000000000000D+00
   284  2.8300000000000D+00  0.0000000000000D+00  0.0000000000000D+00
   285  2.8400000000000D+00  0.0000000000000D+00  0.0000000000000D+00
   286  2.8500000000000D+00  0.0000000000000D+00  0.0000000000000D+00
   287  2.8600000000000D+00  0.0000000000000D+00  0.0000000000000D+00
   288  2.8700000000000D+00  0.0000000000000D+00  0.0000000000000D+00
   289  2.8800000000000D+00  0.0000000000000D+00  0.0000000000000D+00
   290  2.8900000000000D+00  0.0000000000000D+00  0.0000000000000D+00
   291  2.9000000000000D+00  0.0000000000000D+00  0.0000000000000D+00
   292  2.9100000000000D+00  0.0000000000000D+00  0.0000000000000D+00
   293  2.9200000000000D+00  0.0000000000000D+00  0.0000000000000D+00
   294  2.9300000000000D+00  0.0000000000000D+00  0.0000000000000D+00
   295  2.9400000000000D+00  0.0000000000000D+00  0.0000000000000D+00
   296  2.9500000000000D+00  0.0000000000000D+00  0.0000000000000D+00
   297  2.9600000000000D+00  0.0000000000000D+00  0.0000000000000D+00
   298  2.9700000000000D+00  0.0000000000000D+00  0.0000000000000D+00
   299  2.9800000000000D+00  0.0000000000000D+00  0.0000000000000D+00
   300  2.9900000000000D+00  0.0000000000000D+00  0.0000000000000D+00
   301  3.0000000000000D+00  0.0000000000000D+00  0.0000000000000D+00
   302  3.0100000000000D+00  0.0000000000000D+00  0.0000000000000D+00
   303  3.0200000000000D+00  0.0000000000000D+00  0.0000000000000D+00
   304  3.0300000000000D+00  0.0000000000000D+00  0.0000000000000D+00
   305  3.0400000000000D+00  0.0000000000000D+00  0.0000000000000D+00
   306  3.0500000000000D+00  0.0000000000000D+00  0.0000000000000D+00
   307  3.0600000000000D+00  0.0000000000000D+00  0.0000000000000D+00
   308  3.0700000000000D+00  0.0000000000000D+00  0.0000000000000D+00
   309  3.0800000000000D+00  0.0000000000000D+00  0.0000000000000D+00
   310  3.0900000000000D+00  0.0000000000000D+00  0.0000000000000D+00
   311  3.1000000000000D+00  0.0000000000000D+00  0.0000000000000D+00
   312  3.1100000000000D+00  0.0000000000000D+00  0.0000000000000D+00
   313  3.1200000000000D+00  0.0000000000000D+00  0.0000000000000D+00
   314  3.1300000000000D+00  0.0000000000000D+00  0.0000000000000D+00
   315  3.1400000000000D+00  0.0000000000000D+00  0.0000000000000D+00
   316  3.1500000000000D+00  0.0000000000000D+00  0.0000000000000D+00
   317  3.1600000000000D+00  0.0000000000000D+00  0.0000000000000D+00
   318  3.1700000000000D+00  0.0000000000000D+00  0.0000000000000D+00
   319  3.1800000000000D+00  0.0000000000000D+00  0.0000000000000D+00
   320  3.1900000000000D+00  0.0000000000000D+00  0.0000000000000D+00
   321  3.2000000000000D+00  0.0000000000000D+00  0.0000000000000D+00
   322  3.2100000000000D+00  0.0000000000000D+00  0.0000000000000D+00
   323  3.2200000000000D+00  0.0000000000000D+00  0.0000000000000D+00
   324  3.2300000000000D+00  0.0000000000000D+00  0.0000000000000D+00
   325  3.2400000000000D+00  0.0000000000000D+00  0.0000000000000D+00
   326  3.2500000000000D+00  0.0000000000000D+00  0.0000000000000D+00
   327  3.2600000000000D+00  0.0000000000000D+00  0.0000000000000D+00
   328  3.2700000000000D+00  0.0000000000000D+00  0.0000000000000D+00
   329  3.2800000000000D+00  0.0000000000000D+00  0.0000000000000D+00
   330  3.2900000000000D+00  0.0000000000000D+00  0.0000000000000D+00
   331  3.3000000000000D+00  0.0000000000000D+00  0.0000000000000D+00
   332  3.3100000000000D+00  0.0000000000000D+00  0.0000000000000D+00
   333  3.3200000000000D+00  0.0000000000000D+00  0.0000000000000D+00
   334  3.3300000000000D+00  0.0000000000000D+00  0.0000000000000D+00
   335  3.3400000000000D+00  0.0000000000000D+00  0.0000000000000D+00
   336  3.3500000000000D+00  0.0000000000000D+00  0.0000000000000D+00
   337  3.3600000000000D+00  0.0000000000000D+00  0.0000000000000D+00
   338  3.3700000000000D+00  0.0000000000000D+00  0.0000000000000D+00
   339  3.3800000000000D+00  0.0000000000000D+00  0.0000000000000D+00
   340  3.3900000000000D+00  0.0000000000000D+00  0.0000000000000D+00
   341  3.4000000000000D+00  0.0000000000000D+00  0.0000000000000D+00
   342  3.4100000000000D+00  0.0000000000000D+00  0.0000000000000D+00
   343  3.4200000000000D+00  0.0000000000000D+00  0.0000000000000D+00
   344  3.4300000000000D+00  0.0000000000000D+00  0.0000000000000D+00
   345  3.4400000000000D+00  0.0000000000000D+00  0.0000000000000D+00
   346  3.4500000000000D+00  0.0000000000000D+00  0.0000000000000D+00
   347  3.4600000000000D+00  0.0000000000000D+00  0.0000000000000D+00
   348  3.4700000000000D+00  0.0000000000000D+00  0.0000000000000D+00
   349  3.4800000000000D+00  0.0000000000000D+00  0.0000000000000D+00
   350  3.4900000000000D+00  0.0000000000000D+00  0.0000000000000D+00
   351  3.5000000000000D+00  0.0000000000000D+00  0.0000000000000D+00
   352  3.5100000000000D+00  0.0000000000000D+00  0.0000000000000D+00
   353  3.5200000000000D+00  0.0000000000000D+00  0.0000000000000D+00
   354  3.5300000000000D+00  0.0000000000000D+00  0.0000000000000D+00
   355  3.5400000000000D+00  0.0000000000000D+00  0.0000000000000D+00
   356  3.5500000000000D+00  0.0000000000000D+00  0.0000000000000D+00
   357  3.5600000000000D+00  0.0000000000000D+00  0.0000000000000D+00
   358  3.5700000000000D+00  0.0000000000000D+00  0.0000000000000D+00
   359  3.5800000000000D+00  0.0000000000000D+00  0.0000000000000D+00
   360  3.5900000000000D+00  0.0000000000000D+00  0.0000000000000D+00
   361  3.6000000000000D+00  0.0000000000000D+00  0.0000000000000D+00
   362  3.6100000000000D+00  0.0000000000000D+00  0.0000000000000D+00
   363  3.6200000000000D+00  0.0000000000000D+00  0.0000000000000D+00
   364  3.6300000000000D+00  0.0000000000000D+00  0.0000000000000D+00
   365  3.6400000000000D+00  0.0000000000000D+00  0.0000000000000D+00
   366  3.6500000000000D+00  0.0000000000000D+00  0.0000000000000D+00
   367  3.6600000000000D+00  0.0000000000000D+00  0.0000000000000D+00
   368  3.6700000000000D+00  0.0000000000000D+00  0.0000000000000D+00
   369  3.6800000000000D+00  0.0000000000000D+00  0.0000000000000D+00
   370  3.6900000000000D+00  0.0000000000000D+00  0.0000000000000D+00
   371  3.7000000000000D+00  0.0000000000000D+00  0.0000000000000D+00
   372  3.7100000000000D+00  0.0000000000000D+00  0.0000000000000D+00
   373  3.7200000000000D+00  0.0000000000000D+00  0.0000000000000D+00
   374  3.7300000000000D+00  0.0000000000000D+00  0.0000000000000D+00
   375  3.7400000000000D+00  0.0000000000000D+00  0.0000000000000D+00
   376  3.7500000000000D+00  0.0000000000000D+00  0.0000000000000D+00
   377  3.7600000000000D+00  0.0000000000000D+00  0.0000000000000D+00
   378  3.7700000000000D+00  0.0000000000000D+00  0.0000000000000D+00
   379  3.7800000000000D+00  0.0000000000000D+00  0.0000000000000D+00
   380  3.7900000000000D+00  0.0000000000000D+00  0.0000000000000D+00
   381  3.8000000000000D+00  0.0000000000000D+00  0.0000000000000D+00
   382  3.8100000000000D+00  0.0000000000000D+00  0.0000000000000D+00
   383  3.8200000000000D+00  0.0000000000000D+00  0.0000000000000D+00
   384  3.8300000000000D+00  0.0000000000000D+00  0.0000000000000D+00
   385  3.8400000000000D+00  0.0000000000000D+00  0.0000000000000D+00
   386  3.8500000000000D+00  0.0000000000000D+00  0.0000000000000D+00
   387  3.8600000000000D+00  0.0000000000000D+00  0.0000000000000D+00
   388  3.8700000000000D+00  0.0000000000000D+00  0.0000000000000D+00
   389  3.8800000000000D+00  0.0000000000000D+00  0.0000000000000D+00
   390  3.8900000000000D+00  0.0000000000000D+00  0.0000000000000D+00
   391  3.9000000000000D+00  0.0000000000000D+00  0.0000000000000D+00
   392  3.9100000000000D+00  0.0000000000000D+00  0.0000000000000D+00
   393  3.9200000000000D+00  0.0000000000000D+00  0.0000000000000D+00
   394  3.9300000000000D+00  0.0000000000000D+00  0.0000000000000D+00
   395  3.9400000000000D+00  0.0000000000000D+00  0.0000000000000D+00
   396  3.9500000000000D+00  0.0000000000000D+00  0.0000000000000D+00
   397  3.9600000000000D+00  0.0000000000000D+00  0.0000000000000D+00
   398  3.9700000000000D+00  0.0000000000000D+00  0.0000000000000D+00
   399  3.9800000000000D+00  0.0000000000000D+00  0.0000000000000D+00
   400  3.9900000000000D+00  0.0000000000000D+00  0.0000000000000D+00
   401  4.0000000000000D+00  0.0000000000000D+00  0.0000000000000D+00
   402  4.0100000000000D+00  0.0000000000000D+00  0.0000000000000D+00
   403  4.0200000000000D+00  0.0000000000000D+00  0.0000000000000D+00
   404  4.0300000000000D+00  0.0000000000000D+00  0.0000000000000D+00
   405  4.0400000000000D+00  0.0000000000000D+00  0.0000000000000D+00
   406  4.0500000000000D+00  0.0000000000000D+00  0.0000000000000D+00
   407  4.0600000000000D+00  0.0000000000000D+00  0.0000000000000D+00
   408  4.0700000000000D+00  0.0000000000000D+00  0.0000000000000D+00
   409  4.0800000000000D+00  0.0000000000000D+00  0.0000000000000D+00
   410  4.0900000000000D+00  0.0000000000000D+00  0.0000000000000D+00
   411  4.1000000000000D+00  0.0000000000000D+00  0.0000000000000D+00
   412  4.1100000000000D+00  0.0000000000000D+00  0.0000000000000D+00
   413  4.1200000000000D+00  0.0000000000000D+00  0.0000000000000D+00
   414  4.1300000000000D+00  0.0000000000000D+00  0.0000000000000D+00
   415  4.1400000000000D+00  0.0000000000000D+00  0.0000000000000D+00
   416  4.1500000000000D+00  0.0000000000000D+00  0.0000000000000D+00
   417  4.1600000000000D+00  0.0000000000000D+00  0.0000000000000D+00
   418  4.1700000000000D+00  0.0000000000000D+00  0.0000000000000D+00
   419  4.1800000000000D+00  0.0000000000000D+00  0.0000000000000D+00
   420  4.1900000000000D+00  0.0000000000000D+00  0.0000000000000D+00
   421  4.2000000000000D+00  0.0000000000000D+00  0.0000000000000D+00
   422  4.2100000000000D+00  0.0000000000000D+00  0.0000000000000D+00