Fe    ONCVPSP-3.3.1  r_core=   2.08667   2.13706   2.06193
     26.0000     16.0000      210904    zatom,zion,pspd
     8      11   2     4   600     0    pspcod,pspxc,lmax,lloc,mmax,r2well
  5.99000000  0.00000000  0.00000000    rchrg fchrg qchrg
     2     2     2     0     0    nproj
     1     1           extension_switch
   0                        -4.9010928905005D+01 -2.3355636499723D+00
     1  0.0000000000000D+00  6.5982219688010D-11 -8.7936324888460D-12
     2  1.0000000000000D-02  5.8502343588963D-02  3.1134047093300D-02
     3  2.0000000000000D-02  1.1688313429465D-01  6.2246584440248D-02
     4  3.0000000000000D-02  1.7502090917036D-01  9.3316141119877D-02
     5  4.0000000000000D-02  2.3279438665283D-01  1.2432132359323D-01
     6  5.0000000000000D-02  2.9008256101268D-01  1.5524085372473D-01
     7  6.0000000000000D-02  3.4676480126838D-01  1.8605360600620D-01
     8  7.0000000000000D-02  4.0272095597341D-01  2.1673864372825D-01
     9  8.0000000000000D-02  4.5783146522043D-01  2.4727525385234D-01
    10  9.0000000000000D-02  5.1197748112453D-01  2.7764298034793D-01
    11  1.0000000000000D-01  5.6504099795111D-01  3.0782165577187D-01
    12  1.1000000000000D-01  6.1690499294378D-01  3.3779143088193D-01
    13  1.2000000000000D-01  6.6745357878325D-01  3.6753280209302D-01
    14  1.3000000000000D-01  7.1657216847296D-01  3.9702663660278D-01
    15  1.4000000000000D-01  7.6414765329970D-01  4.2625419503285D-01
    16  1.5000000000000D-01  8.1006859436063D-01  4.5519715145338D-01
    17  1.6000000000000D-01  8.5422542798271D-01  4.8383761068045D-01
    18  1.7000000000000D-01  8.9651068518770D-01  5.1215812275933D-01
    19  1.8000000000000D-01  9.3681922517700D-01  5.4014169457085D-01
    20  1.9000000000000D-01  9.7504848262812D-01  5.6777179852259D-01
    21  2.0000000000000D-01  1.0110987284082D+00  5.9503237831223D-01
    22  2.1000000000000D-01  1.0448733431233D+00  6.2190785177548D-01
    23  2.2000000000000D-01  1.0762791027351D+00  6.4838311085696D-01
    24  2.3000000000000D-01  1.1052264752926D+00  6.7444351876754D-01
    25  2.4000000000000D-01  1.1316299276426D+00  7.0007490441675D-01
    26  2.5000000000000D-01  1.1554082408106D+00  7.2526355423361D-01
    27  2.6000000000000D-01  1.1764848325695D+00  7.4999620151259D-01
    28  2.7000000000000D-01  1.1947880855549D+00  7.7426001344465D-01
    29  2.8000000000000D-01  1.2102516791328D+00  7.9804257601479D-01
    30  2.9000000000000D-01  1.2228149230852D+00  8.2133187696784D-01
    31  3.0000000000000D-01  1.2324230910483D+00  8.4411628706333D-01
    32  3.1000000000000D-01  1.2390277515273D+00  8.6638453985745D-01
    33  3.2000000000000D-01  1.2425870942068D+00  8.8812571026545D-01
    34  3.3000000000000D-01  1.2430662491950D+00  9.0932919217151D-01
    35  3.4000000000000D-01  1.2404375967709D+00  9.2998467536448D-01
    36  3.5000000000000D-01  1.2346810651541D+00  9.5008212208721D-01
    37  3.6000000000000D-01  1.2257844137859D+00  9.6961174349410D-01
    38  3.7000000000000D-01  1.2137434995978D+00  9.8856397631637D-01
    39  3.8000000000000D-01  1.1985625237493D+00  1.0069294600366D+00
    40  3.9000000000000D-01  1.1802542563471D+00  1.0246990148740D+00
    41  4.0000000000000D-01  1.1588402367007D+00  1.0418636208794D+00
    42  4.1000000000000D-01  1.1343509467393D+00  1.0584143984327D+00
    43  4.2000000000000D-01  1.1068259552993D+00  1.0743425904302D+00
    44  4.3000000000000D-01  1.0763140311009D+00  1.0896395464365D+00
    45  4.4000000000000D-01  1.0428732223546D+00  1.1042967090643D+00
    46  4.5000000000000D-01  1.0065709010851D+00  1.1183056028315D+00
    47  4.6000000000000D-01  9.6748377042140D-01  1.1316578257263D+00
    48  4.7000000000000D-01  9.2569783328059D-01  1.1443450436923D+00
    49  4.8000000000000D-01  8.8130832106985D-01  1.1563589882260D+00
    50  4.9000000000000D-01  8.3441958123955D-01  1.1676914572515D+00
    51  5.0000000000000D-01  7.8514492274631D-01  1.1783343194189D+00
    52  5.1000000000000D-01  7.3360641872049D-01  1.1882795219390D+00
    53  5.2000000000000D-01  6.7993466588052D-01  1.1975191020460D+00
    54  5.3000000000000D-01  6.2426850049376D-01  1.2060452021444D+00
    55  5.4000000000000D-01  5.6675467094767D-01  1.2138500886715D+00
    56  5.5000000000000D-01  5.0754746726696D-01  1.2209261746726D+00
    57  5.6000000000000D-01  4.4680830818645D-01  1.2272660460549D+00
    58  5.7000000000000D-01  3.8470528666750D-01  1.2328624914566D+00
    59  5.8000000000000D-01  3.2141267502397D-01  1.2377085356315D+00
    60  5.9000000000000D-01  2.5711039109956D-01  1.2417974762223D+00
    61  6.0000000000000D-01  1.9198342721273D-01  1.2451229237603D+00
    62  6.1000000000000D-01  1.2622124385238D-01  1.2476788446994D+00
    63  6.2000000000000D-01  6.0017130368740D-02  1.2494596072650D+00
    64  6.3000000000000D-01 -6.4324648441021D-03  1.2504600298635D+00
    65  6.4000000000000D-01 -7.2928631938009D-02  1.2506754317770D+00
    66  6.5000000000000D-01 -1.3927072200792D-01  1.2501016858353D+00
    67  6.6000000000000D-01 -2.0525709111837D-01  1.2487352727385D+00
    68  6.7000000000000D-01 -2.7068586258508D-01  1.2465733366758D+00
    69  6.8000000000000D-01 -3.3535570395701D-01  1.2436137418695D+00
    70  6.9000000000000D-01 -3.9906661498516D-01  1.2398551296526D+00
    71  7.0000000000000D-01 -4.6162072272470D-01  1.2352969756738D+00
    72  7.1000000000000D-01 -5.2282307980039D-01  1.2299396468115D+00
    73  7.2000000000000D-01 -5.8248246177007D-01  1.2237844573646D+00
    74  7.3000000000000D-01 -6.4041215945166D-01  1.2168337240854D+00
    75  7.4000000000000D-01 -6.9643076203328D-01  1.2090908196118D+00
    76  7.5000000000000D-01 -7.5036292676642D-01  1.2005602238559D+00
    77  7.6000000000000D-01 -8.0204013104799D-01  1.1912475729070D+00
    78  7.7000000000000D-01 -8.5130140272983D-01  1.1811597050143D+00
    79  7.8000000000000D-01 -8.9799402455282D-01  1.1703047032186D+00
    80  7.9000000000000D-01 -9.4197420868851D-01  1.1586919342176D+00
    81  8.0000000000000D-01 -9.8310773748213D-01  1.1463320830604D+00
    82  8.1000000000000D-01 -1.0212705666289D+00  1.1332371832865D+00
    83  8.2000000000000D-01 -1.0563493871777D+00  1.1194206421433D+00
    84  8.3000000000000D-01 -1.0882421429441D+00  1.1048972605404D+00
    85  8.4000000000000D-01 -1.1168585001240D+00  1.0896832474241D+00
    86  8.5000000000000D-01 -1.1421202661348D+00  1.0737962282856D+00
    87  8.6000000000000D-01 -1.1639617549634D+00  1.0572552475455D+00
    88  8.7000000000000D-01 -1.1823300965764D+00  1.0400807645926D+00
    89  8.8000000000000D-01 -1.1971854882392D+00  1.0222946432889D+00
    90  8.9000000000000D-01 -1.2085013859015D+00  1.0039201347914D+00
    91  9.0000000000000D-01 -1.2162646341306D+00  9.8498185357963D-01
    92  9.1000000000000D-01 -1.2204755334085D+00  9.6550574661822D-01
    93  9.2000000000000D-01 -1.2211478439618D+00  9.4551905562636D-01
    94  9.3000000000000D-01 -1.2183087256434D+00  9.2505027246727D-01
    95  9.4000000000000D-01 -1.2119986137535D+00  9.0412908771495D-01
    96  9.5000000000000D-01 -1.2022710310510D+00  8.8278633249851D-01
    97  9.6000000000000D-01 -1.1891923365751D+00  8.6105391376777D-01
    98  9.7000000000000D-01 -1.1728414122710D+00  8.3896474316765D-01
    99  9.8000000000000D-01 -1.1533092887674D+00  8.1655265975070D-01
   100  9.9000000000000D-01 -1.1306987120250D+00  7.9385234679949D-01
   101  1.0000000000000D+00 -1.1051236529219D+00  7.7089924307159D-01
   102  1.0100000000000D+00 -1.0767087621843D+00  7.4772944881834D-01
   103  1.0200000000000D+00 -1.0455887734021D+00  7.2437962696695D-01
   104  1.0300000000000D+00 -1.0119078571820D+00  7.0088689989036D-01
   105  1.0400000000000D+00 -9.7581892979801D-01  6.7728874222407D-01
   106  1.0500000000000D+00 -9.3748291995761D-01  6.5362287021704D-01
   107  1.0600000000000D+00 -8.9706799758933D-01  6.2992712813583D-01
   108  1.0700000000000D+00 -8.5474876877387D-01  6.0623937226324D-01
   109  1.0800000000000D+00 -8.1070544115906D-01  5.8259735305634D-01
   110  1.0900000000000D+00 -7.6512296439195D-01  5.5903859604723D-01
   111  1.1000000000000D+00 -7.1819015024028D-01  5.3560028208401D-01
   112  1.1100000000000D+00 -6.7009877723584D-01  5.1231912752333D-01
   113  1.1200000000000D+00 -6.2104268475202D-01  4.8923126499192D-01
   114  1.1300000000000D+00 -5.7121686150648D-01  4.6637212533909D-01
   115  1.1400000000000D+00 -5.2081653351736D-01  4.4377632140236D-01
   116  1.1500000000000D+00 -4.7003625655921D-01  4.2147753420551D-01
   117  1.1600000000000D+00 -4.1906901813695D-01  3.9950840219979D-01
   118  1.1700000000000D+00 -3.6810535392736D-01  3.7790041414537D-01
   119  1.1800000000000D+00 -3.1733248358980D-01  3.5668380622057D-01
   120  1.1900000000000D+00 -2.6693347070134D-01  3.3588746392158D-01
   121  1.2000000000000D+00 -2.1708641142817D-01  3.1553882929350D-01
   122  1.2100000000000D+00 -1.6796365636045D-01  2.9566381400573D-01
   123  1.2200000000000D+00 -1.1973106980310D-01  2.7628671876425D-01
   124  1.2300000000000D+00 -7.2547330487631D-02  2.5743015950602D-01
   125  1.2400000000000D+00 -2.6563277398425D-02  2.3911500078318D-01
   126  1.2500000000000D+00  1.8078695664938D-02  2.2136029673394D-01
   127  1.2600000000000D+00  6.1245193741830D-02  2.0418323995729D-01
   128  1.2700000000000D+00  1.0281231979213D-01  1.8759911857457D-01
   129  1.2800000000000D+00  1.4266611651367D-01  1.7162128174684D-01
   130  1.2900000000000D+00  1.8070294888843D-01  1.5626111382462D-01
   131  1.3000000000000D+00  2.1682982579593D-01  1.4152801726168D-01
   132  1.3100000000000D+00  2.5096465900254D-01  1.2742940442731D-01
   133  1.3200000000000D+00  2.8303645878047D-01  1.1397069832713D-01
   134  1.3300000000000D+00  3.1298546563790D-01  1.0115534221354D-01
   135  1.3400000000000D+00  3.4076321757266D-01  8.8984818074784D-02
   136  1.3500000000000D+00  3.6633255351433D-01  7.7458673829610D-02
   137  1.3600000000000D+00  3.8966755338049D-01  6.6574559086251D-02
   138  1.3700000000000D+00  4.1075341556217D-01  5.6328269273049D-02
   139  1.3800000000000D+00  4.2958627372365D-01  4.6713797812903D-02
   140  1.3900000000000D+00  4.4617295418235D-01  3.7723396092146D-02
   141  1.4000000000000D+00  4.6053067630284D-01  2.9347640826111D-02
   142  1.4100000000000D+00  4.7268669855141D-01  2.1575508399639D-02
   143  1.4200000000000D+00  4.8267791252246D-01  1.4394455799791D-02
   144  1.4300000000000D+00  4.9055038880388D-01  7.7905075683116D-03
   145  1.4400000000000D+00  4.9635887752952D-01  1.7483483260088D-03
   146  1.4500000000000D+00  5.0016626767611D-01 -3.7485797268801D-03
   147  1.4600000000000D+00  5.0204300910624D-01 -8.7179749188175D-03
   148  1.4700000000000D+00  5.0206650122056D-01 -1.3178570397641D-02
   149  1.4800000000000D+00  5.0032045312734D-01 -1.7150025290994D-02
   150  1.4900000000000D+00  4.9689421932404D-01 -2.0652813326136D-02
   151  1.5000000000000D+00  4.9188211604398D-01 -2.3708109621395D-02
   152  1.5100000000000D+00  4.8538272271422D-01 -2.6337676284021D-02
   153  1.5200000000000D+00  4.7749817359464D-01 -2.8563747519213D-02
   154  1.5300000000000D+00  4.6833344428489D-01 -3.0408914895220D-02
   155  1.5400000000000D+00  4.5799563824566D-01 -3.1896013485838D-02
   156  1.5500000000000D+00  4.4659327775476D-01 -3.3048009477873D-02
   157  1.5600000000000D+00  4.3423560471628D-01 -3.3887890005049D-02
   158  1.5700000000000D+00  4.2103189519997D-01 -3.4438555708967D-02
   159  1.5800000000000D+00  4.0709079316981D-01 -3.4722716786888D-02
   160  1.5900000000000D+00  3.9251966690092D-01 -3.4762792974281D-02
   161  1.6000000000000D+00  3.7742399310024D-01 -3.4580818147884D-02
   162  1.6100000000000D+00  3.6190677208635D-01 -3.4198349979992D-02
   163  1.6200000000000D+00  3.4606797817803D-01 -3.3636385199085D-02
   164  1.6300000000000D+00  3.3000404865841D-01 -3.2915280890944D-02
   165  1.6400000000000D+00  3.1380741428818D-01 -3.2054682225326D-02
   166  1.6500000000000D+00  2.9756607481347D-01 -3.1073457053565D-02
   167  1.6600000000000D+00  2.8136322108301D-01 -2.9989637570535D-02
   168  1.6700000000000D+00  2.6527690726063D-01 -2.8820369490923D-02
   169  1.6800000000000D+00  2.4937977335669D-01 -2.7581868740282D-02
   170  1.6900000000000D+00  2.3373882144791D-01 -2.6289386092886D-02
   171  1.7000000000000D+00  2.1841524454656D-01 -2.4957179584046D-02
   172  1.7100000000000D+00  2.0346431109539D-01 -2.3598495072655D-02
   173  1.7200000000000D+00  1.8893530307434D-01 -2.2225554649859D-02
   174  1.7300000000000D+00  1.7487150991591D-01 -2.0849553161003D-02
   175  1.7400000000000D+00  1.6131027566967D-01 -1.9480662464183D-02
   176  1.7500000000000D+00  1.4828310036838D-01 -1.8128043521806D-02
   177  1.7600000000000D+00  1.3581579301595D-01 -1.6799865947162D-02
   178  1.7700000000000D+00  1.2392867542329D-01 -1.5503334868142D-02
   179  1.7800000000000D+00  1.1263683483225D-01 -1.4244724800783D-02
   180  1.7900000000000D+00  1.0195042242953D-01 -1.3029420109615D-02
   181  1.8000000000000D+00  9.1874996638375D-02 -1.1861961873559D-02
   182  1.8100000000000D+00  8.2411908072097D-02 -1.0746100677851D-02
   183  1.8200000000000D+00  7.3558721333036D-02 -9.6848547209372D-03
   184  1.8300000000000D+00  6.5309642118872D-02 -8.6805693457996D-03
   185  1.8400000000000D+00  5.7656141432351D-02 -7.7350008807479D-03
   186  1.8500000000000D+00  5.0587098739247D-02 -6.8493434645103D-03
   187  1.8600000000000D+00  4.4089646194507D-02 -6.0243406801323D-03
   188  1.8700000000000D+00  3.8150367110245D-02 -5.2604391226512D-03
   189  1.8800000000000D+00  3.2754590952557D-02 -4.5577157906561D-03
   190  1.8900000000000D+00  2.7885798218214D-02 -3.9158193072839D-03
   191  1.9000000000000D+00  2.3525205067066D-02 -3.3339308298459D-03
   192  1.9100000000000D+00  1.9651087081544D-02 -2.8106927666252D-03
   193  1.9200000000000D+00  1.6238293340360D-02 -2.3441604975582D-03
   194  1.9300000000000D+00  1.3259292742763D-02 -1.9319366066626D-03
   195  1.9400000000000D+00  1.0685021345586D-02 -1.5712805356181D-03
   196  1.9500000000000D+00  8.4849426213547D-03 -1.2591256064139D-03
   197  1.9600000000000D+00  6.6276557041143D-03 -9.9216058633050D-04
   198  1.9700000000000D+00  5.0813073617035D-03 -7.6688772510828D-04
   199  1.9800000000000D+00  3.8139944605806D-03 -5.7967939477374D-04
   200  1.9900000000000D+00  2.7941495979972D-03 -4.2683234149985D-04
   201  2.0000000000000D+00  1.9908888978635D-03 -3.0461692851075D-04
   202  2.0100000000000D+00  1.3743319642250D-03 -2.0932268751289D-04
   203  2.0200000000000D+00  9.1596699580422D-04 -1.3729454854342D-04
   204  2.0300000000000D+00  5.8856358034721D-04 -8.4981468571454D-05
   205  2.0400000000000D+00  3.6627790855396D-04 -4.8940216299832D-05
   206  2.0500000000000D+00  2.2565998057618D-04 -2.5873631601409D-05
   207  2.0600000000000D+00  1.4801928724852D-04 -1.2742586186626D-05
   208  2.0700000000000D+00  1.1759104111639D-04 -6.8177219695238D-06
   209  2.0800000000000D+00  1.0557676746894D-04 -4.7913313905182D-06
   210  2.0900000000000D+00  8.4634259868966D-05 -3.7083908819648D-06
   211  2.1000000000000D+00  4.4661675675369D-05 -1.9911087561742D-06
   212  2.1100000000000D+00  5.4173966114494D-06 -2.5024458540732D-07
   213  2.1200000000000D+00 -9.4444271725164D-06  3.9225085156680D-07
   214  2.1300000000000D+00 -6.4917645933780D-06  2.7088326591718D-07
   215  2.1400000000000D+00  9.2555554237758D-07 -3.5071567165047D-08
   216  2.1500000000000D+00  2.1376866798417D-06 -8.0177383239194D-08
   217  2.1600000000000D+00  6.2737618024646D-07 -2.3334865404064D-08
   218  2.1700000000000D+00 -2.2349688271913D-07  9.8525953875251D-09
   219  2.1800000000000D+00 -2.2540036295529D-07  9.9365080594460D-09
   220  2.1900000000000D+00  0.0000000000000D+00  0.0000000000000D+00
   221  2.2000000000000D+00  0.0000000000000D+00  0.0000000000000D+00
   222  2.2100000000000D+00  0.0000000000000D+00  0.0000000000000D+00
   223  2.2200000000000D+00  0.0000000000000D+00  0.0000000000000D+00
   224  2.2300000000000D+00  0.0000000000000D+00  0.0000000000000D+00
   225  2.2400000000000D+00  0.0000000000000D+00  0.0000000000000D+00
   226  2.2500000000000D+00  0.0000000000000D+00  0.0000000000000D+00
   227  2.2600000000000D+00  0.0000000000000D+00  0.0000000000000D+00
   228  2.2700000000000D+00  0.0000000000000D+00  0.0000000000000D+00
   229  2.2800000000000D+00  0.0000000000000D+00  0.0000000000000D+00
   230  2.2900000000000D+00  0.0000000000000D+00  0.0000000000000D+00
   231  2.3000000000000D+00  0.0000000000000D+00  0.0000000000000D+00
   232  2.3100000000000D+00  0.0000000000000D+00  0.0000000000000D+00
   233  2.3200000000000D+00  0.0000000000000D+00  0.0000000000000D+00
   234  2.3300000000000D+00  0.0000000000000D+00  0.0000000000000D+00
   235  2.3400000000000D+00  0.0000000000000D+00  0.0000000000000D+00
   236  2.3500000000000D+00  0.0000000000000D+00  0.0000000000000D+00
   237  2.3600000000000D+00  0.0000000000000D+00  0.0000000000000D+00
   238  2.3700000000000D+00  0.0000000000000D+00  0.0000000000000D+00
   239  2.3800000000000D+00  0.0000000000000D+00  0.0000000000000D+00
   240  2.3900000000000D+00  0.0000000000000D+00  0.0000000000000D+00
   241  2.4000000000000D+00  0.0000000000000D+00  0.0000000000000D+00
   242  2.4100000000000D+00  0.0000000000000D+00  0.0000000000000D+00
   243  2.4200000000000D+00  0.0000000000000D+00  0.0000000000000D+00
   244  2.4300000000000D+00  0.0000000000000D+00  0.0000000000000D+00
   245  2.4400000000000D+00  0.0000000000000D+00  0.0000000000000D+00
   246  2.4500000000000D+00  0.0000000000000D+00  0.0000000000000D+00
   247  2.4600000000000D+00  0.0000000000000D+00  0.0000000000000D+00
   248  2.4700000000000D+00  0.0000000000000D+00  0.0000000000000D+00
   249  2.4800000000000D+00  0.0000000000000D+00  0.0000000000000D+00
   250  2.4900000000000D+00  0.0000000000000D+00  0.0000000000000D+00
   251  2.5000000000000D+00  0.0000000000000D+00  0.0000000000000D+00
   252  2.5100000000000D+00  0.0000000000000D+00  0.0000000000000D+00
   253  2.5200000000000D+00  0.0000000000000D+00  0.0000000000000D+00
   254  2.5300000000000D+00  0.0000000000000D+00  0.0000000000000D+00
   255  2.5400000000000D+00  0.0000000000000D+00  0.0000000000000D+00
   256  2.5500000000000D+00  0.0000000000000D+00  0.0000000000000D+00
   257  2.5600000000000D+00  0.0000000000000D+00  0.0000000000000D+00
   258  2.5700000000000D+00  0.0000000000000D+00  0.0000000000000D+00
   259  2.5800000000000D+00  0.0000000000000D+00  0.0000000000000D+00
   260  2.5900000000000D+00  0.0000000000000D+00  0.0000000000000D+00
   261  2.6000000000000D+00  0.0000000000000D+00  0.0000000000000D+00
   262  2.6100000000000D+00  0.0000000000000D+00  0.0000000000000D+00
   263  2.6200000000000D+00  0.0000000000000D+00  0.0000000000000D+00
   264  2.6300000000000D+00  0.0000000000000D+00  0.0000000000000D+00
   265  2.6400000000000D+00  0.0000000000000D+00  0.0000000000000D+00
   266  2.6500000000000D+00  0.0000000000000D+00  0.0000000000000D+00
   267  2.6600000000000D+00  0.0000000000000D+00  0.0000000000000D+00
   268  2.6700000000000D+00  0.0000000000000D+00  0.0000000000000D+00
   269  2.6800000000000D+00  0.0000000000000D+00  0.0000000000000D+00
   270  2.6900000000000D+00  0.0000000000000D+00  0.0000000000000D+00
   271  2.7000000000000D+00  0.0000000000000D+00  0.0000000000000D+00
   272  2.7100000000000D+00  0.0000000000000D+00  0.0000000000000D+00
   273  2.7200000000000D+00  0.0000000000000D+00  0.0000000000000D+00
   274  2.7300000000000D+00  0.0000000000000D+00  0.0000000000000D+00
   275  2.7400000000000D+00  0.0000000000000D+00  0.0000000000000D+00
   276  2.7500000000000D+00  0.0000000000000D+00  0.0000000000000D+00
   277  2.7600000000000D+00  0.0000000000000D+00  0.0000000000000D+00
   278  2.7700000000000D+00  0.0000000000000D+00  0.0000000000000D+00
   279  2.7800000000000D+00  0.0000000000000D+00  0.0000000000000D+00
   280  2.7900000000000D+00  0.0000000000000D+00  0.0000000000000D+00
   281  2.8000000000000D+00  0.0000000000000D+00  0.0000000000000D+00
   282  2.8100000000000D+00  0.0000000000000D+00  0.0000000000000D+00
   283  2.8200000000000D+00  0.0000000000000D+00  0.0000000000000D+00
   284  2.8300000000000D+00  0.0000000000000D+00  0.0000000000000D+00
   285  2.8400000000000D+00  0.0000000000000D+00  0.0000000000000D+00
   286  2.8500000000000D+00  0.0000000000000D+00  0.0000000000000D+00
   287  2.8600000000000D+00  0.0000000000000D+00  0.0000000000000D+00
   288  2.8700000000000D+00  0.0000000000000D+00  0.0000000000000D+00
   289  2.8800000000000D+00  0.0000000000000D+00  0.0000000000000D+00
   290  2.8900000000000D+00  0.0000000000000D+00  0.0000000000000D+00
   291  2.9000000000000D+00  0.0000000000000D+00  0.0000000000000D+00
   292  2.9100000000000D+00  0.0000000000000D+00  0.0000000000000D+00
   293  2.9200000000000D+00  0.0000000000000D+00  0.0000000000000D+00
   294  2.9300000000000D+00  0.0000000000000D+00  0.0000000000000D+00
   295  2.9400000000000D+00  0.0000000000000D+00  0.0000000000000D+00
   296  2.9500000000000D+00  0.0000000000000D+00  0.0000000000000D+00
   297  2.9600000000000D+00  0.0000000000000D+00  0.0000000000000D+00
   298  2.9700000000000D+00  0.0000000000000D+00  0.0000000000000D+00
   299  2.9800000000000D+00  0.0000000000000D+00  0.0000000000000D+00
   300  2.9900000000000D+00  0.0000000000000D+00  0.0000000000000D+00
   301  3.0000000000000D+00  0.0000000000000D+00  0.0000000000000D+00
   302  3.0100000000000D+00  0.0000000000000D+00  0.0000000000000D+00
   303  3.0200000000000D+00  0.0000000000000D+00  0.0000000000000D+00
   304  3.0300000000000D+00  0.0000000000000D+00  0.0000000000000D+00
   305  3.0400000000000D+00  0.0000000000000D+00  0.0000000000000D+00
   306  3.0500000000000D+00  0.0000000000000D+00  0.0000000000000D+00
   307  3.0600000000000D+00  0.0000000000000D+00  0.0000000000000D+00
   308  3.0700000000000D+00  0.0000000000000D+00  0.0000000000000D+00
   309  3.0800000000000D+00  0.0000000000000D+00  0.0000000000000D+00
   310  3.0900000000000D+00  0.0000000000000D+00  0.0000000000000D+00
   311  3.1000000000000D+00  0.0000000000000D+00  0.0000000000000D+00
   312  3.1100000000000D+00  0.0000000000000D+00  0.0000000000000D+00
   313  3.1200000000000D+00  0.0000000000000D+00  0.0000000000000D+00
   314  3.1300000000000D+00  0.0000000000000D+00  0.0000000000000D+00
   315  3.1400000000000D+00  0.0000000000000D+00  0.0000000000000D+00
   316  3.1500000000000D+00  0.0000000000000D+00  0.0000000000000D+00
   317  3.1600000000000D+00  0.0000000000000D+00  0.0000000000000D+00
   318  3.1700000000000D+00  0.0000000000000D+00  0.0000000000000D+00
   319  3.1800000000000D+00  0.0000000000000D+00  0.0000000000000D+00
   320  3.1900000000000D+00  0.0000000000000D+00  0.0000000000000D+00
   321  3.2000000000000D+00  0.0000000000000D+00  0.0000000000000D+00
   322  3.2100000000000D+00  0.0000000000000D+00  0.0000000000000D+00
   323  3.2200000000000D+00  0.0000000000000D+00  0.0000000000000D+00
   324  3.2300000000000D+00  0.0000000000000D+00  0.0000000000000D+00
   325  3.2400000000000D+00  0.0000000000000D+00  0.0000000000000D+00
   326  3.2500000000000D+00  0.0000000000000D+00  0.0000000000000D+00
   327  3.2600000000000D+00  0.0000000000000D+00  0.0000000000000D+00
   328  3.2700000000000D+00  0.0000000000000D+00  0.0000000000000D+00
   329  3.2800000000000D+00  0.0000000000000D+00  0.0000000000000D+00
   330  3.2900000000000D+00  0.0000000000000D+00  0.0000000000000D+00
   331  3.3000000000000D+00  0.0000000000000D+00  0.0000000000000D+00
   332  3.3100000000000D+00  0.0000000000000D+00  0.0000000000000D+00
   333  3.3200000000000D+00  0.0000000000000D+00  0.0000000000000D+00
   334  3.3300000000000D+00  0.0000000000000D+00  0.0000000000000D+00
   335  3.3400000000000D+00  0.0000000000000D+00  0.0000000000000D+00
   336  3.3500000000000D+00  0.0000000000000D+00  0.0000000000000D+00
   337  3.3600000000000D+00  0.0000000000000D+00  0.0000000000000D+00
   338  3.3700000000000D+00  0.0000000000000D+00  0.0000000000000D+00
   339  3.3800000000000D+00  0.0000000000000D+00  0.0000000000000D+00
   340  3.3900000000000D+00  0.0000000000000D+00  0.0000000000000D+00
   341  3.4000000000000D+00  0.0000000000000D+00  0.0000000000000D+00
   342  3.4100000000000D+00  0.0000000000000D+00  0.0000000000000D+00
   343  3.4200000000000D+00  0.0000000000000D+00  0.0000000000000D+00
   344  3.4300000000000D+00  0.0000000000000D+00  0.0000000000000D+00
   345  3.4400000000000D+00  0.0000000000000D+00  0.0000000000000D+00
   346  3.4500000000000D+00  0.0000000000000D+00  0.0000000000000D+00
   347  3.4600000000000D+00  0.0000000000000D+00  0.0000000000000D+00
   348  3.4700000000000D+00  0.0000000000000D+00  0.0000000000000D+00
   349  3.4800000000000D+00  0.0000000000000D+00  0.0000000000000D+00
   350  3.4900000000000D+00  0.0000000000000D+00  0.0000000000000D+00
   351  3.5000000000000D+00  0.0000000000000D+00  0.0000000000000D+00
   352  3.5100000000000D+00  0.0000000000000D+00  0.0000000000000D+00
   353  3.5200000000000D+00  0.0000000000000D+00  0.0000000000000D+00
   354  3.5300000000000D+00  0.0000000000000D+00  0.0000000000000D+00
   355  3.5400000000000D+00  0.0000000000000D+00  0.0000000000000D+00
   356  3.5500000000000D+00  0.0000000000000D+00  0.0000000000000D+00
   357  3.5600000000000D+00  0.0000000000000D+00  0.0000000000000D+00
   358  3.5700000000000D+00  0.0000000000000D+00  0.0000000000000D+00
   359  3.5800000000000D+00  0.0000000000000D+00  0.0000000000000D+00
   360  3.5900000000000D+00  0.0000000000000D+00  0.0000000000000D+00
   361  3.6000000000000D+00  0.0000000000000D+00  0.0000000000000D+00
   362  3.6100000000000D+00  0.0000000000000D+00  0.0000000000000D+00
   363  3.6200000000000D+00  0.0000000000000D+00  0.0000000000000D+00
   364  3.6300000000000D+00  0.0000000000000D+00  0.0000000000000D+00
   365  3.6400000000000D+00  0.0000000000000D+00  0.0000000000000D+00
   366  3.6500000000000D+00  0.0000000000000D+00  0.0000000000000D+00
   367  3.6600000000000D+00  0.0000000000000D+00  0.0000000000000D+00
   368  3.6700000000000D+00  0.0000000000000D+00  0.0000000000000D+00
   369  3.6800000000000D+00  0.0000000000000D+00  0.0000000000000D+00
   370  3.6900000000000D+00  0.0000000000000D+00  0.0000000000000D+00
   371  3.7000000000000D+00  0.0000000000000D+00  0.0000000000000D+00
   372  3.7100000000000D+00  0.0000000000000D+00  0.0000000000000D+00
   373  3.7200000000000D+00  0.0000000000000D+00  0.0000000000000D+00
   374  3.7300000000000D+00  0.0000000000000D+00  0.0000000000000D+00
   375  3.7400000000000D+00  0.0000000000000D+00  0.0000000000000D+00
   376  3.7500000000000D+00  0.0000000000000D+00  0.0000000000000D+00
   377  3.7600000000000D+00  0.0000000000000D+00  0.0000000000000D+00
   378  3.7700000000000D+00  0.0000000000000D+00  0.0000000000000D+00
   379  3.7800000000000D+00  0.0000000000000D+00  0.0000000000000D+00
   380  3.7900000000000D+00  0.0000000000000D+00  0.0000000000000D+00
   381  3.8000000000000D+00  0.0000000000000D+00  0.0000000000000D+00
   382  3.8100000000000D+00  0.0000000000000D+00  0.0000000000000D+00
   383  3.8200000000000D+00  0.0000000000000D+00  0.0000000000000D+00
   384  3.8300000000000D+00  0.0000000000000D+00  0.0000000000000D+00
   385  3.8400000000000D+00  0.0000000000000D+00  0.0000000000000D+00
   386  3.8500000000000D+00  0.0000000000000D+00  0.0000000000000D+00
   387  3.8600000000000D+00  0.0000000000000D+00  0.0000000000000D+00
   388  3.8700000000000D+00  0.0000000000000D+00  0.0000000000000D+00
   389  3.8800000000000D+00  0.0000000000000D+00  0.0000000000000D+00
   390  3.8900000000000D+00  0.0000000000000D+00  0.0000000000000D+00
   391  3.9000000000000D+00  0.0000000000000D+00  0.0000000000000D+00
   392  3.9100000000000D+00  0.0000000000000D+00  0.0000000000000D+00
   393  3.9200000000000D+00  0.0000000000000D+00  0.0000000000000D+00
   394  3.9300000000000D+00  0.0000000000000D+00  0.0000000000000D+00
   395  3.9400000000000D+00  0.0000000000000D+00  0.0000000000000D+00
   396  3.9500000000000D+00  0.0000000000000D+00  0.0000000000000D+00
   397  3.9600000000000D+00  0.0000000000000D+00  0.0000000000000D+00
   398  3.9700000000000D+00  0.0000000000000D+00  0.0000000000000D+00
   399  3.9800000000000D+00  0.0000000000000D+00  0.0000000000000D+00
   400  3.9900000000000D+00  0.0000000000000D+00  0.0000000000000D+00
   401  4.0000000000000D+00  0.0000000000000D+00  0.0000000000000D+00
   402  4.0100000000000D+00  0.0000000000000D+00  0.0000000000000D+00
   403  4.0200000000000D+00  0.0000000000000D+00  0.0000000000000D+00
   404  4.0300000000000D+00  0.0000000000000D+00  0.0000000000000D+00
   405  4.0400000000000D+00  0.0000000000000D+00  0.0000000000000D+00
   406  4.0500000000000D+00  0.0000000000000D+00  0.0000000000000D+00
   407  4.0600000000000D+00  0.0000000000000D+00  0.0000000000000D+00
   408  4.0700000000000D+00  0.0000000000000D+00  0.0000000000000D+00
   409  4.0800000000000D+00  0.0000000000000D+00  0.0000000000000D+00
   410  4.0900000000000D+00  0.0000000000000D+00  0.0000000000000D+00
   411  4.1000000000000D+00  0.0000000000000D+00  0.0000000000000D+00
   412  4.1100000000000D+00  0.0000000000000D+00  0.0000000000000D+00
   413  4.1200000000000D+00  0.0000000000000D+00  0.0000000000000D+00
   414  4.1300000000000D+00  0.0000000000000D+00  0.0000000000000D+00
   415  4.1400000000000D+00  0.0000000000000D+00  0.0000000000000D+00
   416  4.1500000000000D+00  0.0000000000000D+00  0.0000000000000D+00
   417  4.1600000000000D+00  0.0000000000000D+00  0.0000000000000D+00
   418  4.1700000000000D+00  0.0000000000000D+00  0.0000000000000D+00
   419  4.1800000000000D+00  0.0000000000000D+00  0.0000000000000D+00
   420  4.1900000000000D+00  0.0000000000000D+00  0.0000000000000D+00
   421  4.2000000000000D+00  0.0000000000000D+00  0.0000000000000D+00
   422  4.2100000000000D+00  0.0000000000000D+00  0.0000000000000D+00