Ge    ONCVPSP-3.3.1  r_core=   2.66770   2.57393   2.66770
     32.0000     14.0000      210904    zatom,zion,pspd
     8      11   2     4   600     0    pspcod,pspxc,lmax,lloc,mmax,r2well
  5.99000000  0.00000000  0.00000000    rchrg fchrg qchrg
     2     2     2     0     0    nproj
     1     1           extension_switch
   0                         8.5029845961415D+00  7.3995309192507D-01
     1  0.0000000000000D+00 -3.5619285299049D-12  7.1463945872097D-12
     2  1.0000000000000D-02  4.9840043230514D-02 -3.1645141220330D-02
     3  2.0000000000000D-02  9.9612118923669D-02 -6.3200185068416D-02
     4  3.0000000000000D-02  1.4924839396227D-01 -9.4575263496465D-02
     5  4.0000000000000D-02  1.9868130374053D-01 -1.2568096647783D-01
     6  5.0000000000000D-02  2.4784368559844D-01 -1.5642856945000D-01
     7  6.0000000000000D-02  2.9666891127296D-01 -1.8673025888164D-01
     8  7.0000000000000D-02  3.4509101804265D-01 -2.1649935534657D-01
     9  8.0000000000000D-02  3.9304483824563D-01 -2.4565053349523D-01
    10  9.0000000000000D-02  4.4046612685554D-01 -2.7410003832253D-01
    11  1.0000000000000D-01  4.8729168680521D-01 -3.0176589714228D-01
    12  1.1000000000000D-01  5.3345949175403D-01 -3.2856812669020D-01
    13  1.2000000000000D-01  5.7890880600208D-01 -3.5442893479203D-01
    14  1.3000000000000D-01  6.2358030126161D-01 -3.7927291604853D-01
    15  1.4000000000000D-01  6.6741617000542D-01 -4.0302724100683D-01
    16  1.5000000000000D-01  7.1036023512074D-01 -4.2562183830585D-01
    17  1.6000000000000D-01  7.5235805560741D-01 -4.4698956930435D-01
    18  1.7000000000000D-01  7.9335702807003D-01 -4.6706639472124D-01
    19  1.8000000000000D-01  8.3330648376515D-01 -4.8579153284145D-01
    20  1.9000000000000D-01  8.7215778097661D-01 -5.0310760886431D-01
    21  2.0000000000000D-01  9.0986439250519D-01 -5.1896079499743D-01
    22  2.1000000000000D-01  9.4638198807167D-01 -5.3330094092563D-01
    23  2.2000000000000D-01  9.8166851144651D-01 -5.4608169431186D-01
    24  2.3000000000000D-01  1.0156842521336D+00 -5.5726061101642D-01
    25  2.4000000000000D-01  1.0483919114507D+00 -5.6679925474979D-01
    26  2.5000000000000D-01  1.0797566628631D+00 -5.7466328590515D-01
    27  2.6000000000000D-01  1.1097462064453D+00 -5.8082253934783D-01
    28  2.7000000000000D-01  1.1383308173583D+00 -5.8525109097061D-01
    29  2.8000000000000D-01  1.1654833882485D+00 -5.8792731285616D-01
    30  2.9000000000000D-01  1.1911794654899D+00 -5.8883391692073D-01
    31  3.0000000000000D-01  1.2153972792075D+00 -5.8795798694632D-01
    32  3.1000000000000D-01  1.2381177670385D+00 -5.8529099894181D-01
    33  3.2000000000000D-01  1.2593245916012D+00 -5.8082882980733D-01
    34  3.3000000000000D-01  1.2790041516624D+00 -5.7457175430933D-01
    35  3.4000000000000D-01  1.2971455870087D+00 -5.6652443040777D-01
    36  3.5000000000000D-01  1.3137407770437D+00 -5.5669587300977D-01
    37  3.6000000000000D-01  1.3287843331518D+00 -5.4509941625762D-01
    38  3.7000000000000D-01  1.3422735848837D+00 -5.3175266449144D-01
    39  3.8000000000000D-01  1.3542085600372D+00 -5.1667743205937D-01
    40  3.9000000000000D-01  1.3645919587208D+00 -4.9989967217977D-01
    41  4.0000000000000D-01  1.3734291215054D+00 -4.8144939509113D-01
    42  4.1000000000000D-01  1.3807279917848D+00 -4.6136057575577D-01
    43  4.2000000000000D-01  1.3864990724780D+00 -4.3967105141294D-01
    44  4.3000000000000D-01  1.3907553772264D+00 -4.1642240930558D-01
    45  4.4000000000000D-01  1.3935123762472D+00 -3.9165986493268D-01
    46  4.5000000000000D-01  1.3947879370225D+00 -3.6543213120558D-01
    47  4.6000000000000D-01  1.3946022600147D+00 -3.3779127891220D-01
    48  4.7000000000000D-01  1.3929778096118D+00 -3.0879258891691D-01
    49  4.8000000000000D-01  1.3899392405178D+00 -2.7849439654686D-01
    50  4.9000000000000D-01  1.3855133198155D+00 -2.4695792863691D-01
    51  5.0000000000000D-01  1.3797288449390D+00 -2.1424713372501D-01
    52  5.1000000000000D-01  1.3726165578020D+00 -1.8042850590862D-01
    53  5.2000000000000D-01  1.3642090553399D+00 -1.4557090288931D-01
    54  5.3000000000000D-01  1.3545406967282D+00 -1.0974535874794D-01
    55  5.4000000000000D-01  1.3436475075510D+00 -7.3024892006383D-02
    56  5.5000000000000D-01  1.3315670811964D+00 -3.5484309543498D-02
    57  5.6000000000000D-01  1.3183384777648D+00  2.7999930571390D-03
    58  5.7000000000000D-01  1.3040021207774D+00  4.1750234141596D-02
    59  5.8000000000000D-01  1.2885996919803D+00  8.1287451009904D-02
    60  5.9000000000000D-01  1.2721740245388D+00  1.2133170673339D-01
    61  6.0000000000000D-01  1.2547689949209D+00  1.6180229816555D-01
    62  6.1000000000000D-01  1.2364294137711D+00  2.0261796454589D-01
    63  6.2000000000000D-01  1.2172009160723D+00  2.4369709609749D-01
    64  6.3000000000000D-01  1.1971298508985D+00  2.8495794202173D-01
    65  6.4000000000000D-01  1.1762631710542D+00  3.2631881729833D-01
    66  6.5000000000000D-01  1.1546483228980D+00  3.6769830770547D-01
    67  6.6000000000000D-01  1.1323331366426D+00  4.0901547248324D-01
    68  6.7000000000000D-01  1.1093657174204D+00  4.5019004407344D-01
    69  6.8000000000000D-01  1.0857943373981D+00  4.9114262438117D-01
    70  6.9000000000000D-01  1.0616673292185D+00  5.3179487701679D-01
    71  7.0000000000000D-01  1.0370329810414D+00  5.7206971499229D-01
    72  7.1000000000000D-01  1.0119394334465D+00  6.1189148336308D-01
    73  7.2000000000000D-01  9.8643457845544D-01  6.5118613632433D-01
    74  7.3000000000000D-01  9.6056596091943D-01  6.8988140829125D-01
    75  7.4000000000000D-01  9.3438068250923D-01  7.2790697851383D-01
    76  7.5000000000000D-01  9.0792530853541D-01  7.6519462879914D-01
    77  7.6000000000000D-01  8.8124577781432D-01  8.0167839393868D-01
    78  7.7000000000000D-01  8.5438731578458D-01  8.3729470446278D-01
    79  7.8000000000000D-01  8.2739435106635D-01  8.7198252137102D-01
    80  7.9000000000000D-01  8.0031043564318D-01  9.0568346251414D-01
    81  8.0000000000000D-01  7.7317816883316D-01  9.3834192033195D-01
    82  8.1000000000000D-01  7.4603912520241D-01  9.6990517067996D-01
    83  8.2000000000000D-01  7.1893378656018D-01  1.0003234725077D+00
    84  8.3000000000000D-01  6.9190147816052D-01  1.0295501581821D+00
    85  8.4000000000000D-01  6.6498030922089D-01  1.0575417142794D+00
    86  8.5000000000000D-01  6.3820711785338D-01  1.0842578527026D+00
    87  8.6000000000000D-01  6.1161742048934D-01  1.1096615720085D+00
    88  8.7000000000000D-01  5.8524536586291D-01  1.1337192088669D+00
    89  8.8000000000000D-01  5.5912369360401D-01  1.1564004796000D+00
    90  8.9000000000000D-01  5.3328369747608D-01  1.1776785117850D+00
    91  9.0000000000000D-01  5.0775519327867D-01  1.1975298659354D+00
    92  9.1000000000000D-01  4.8256649142002D-01  1.2159345473063D+00
    93  9.2000000000000D-01  4.5774437414971D-01  1.2328760079003D+00
    94  9.3000000000000D-01  4.3331407742682D-01  1.2483411387824D+00
    95  9.4000000000000D-01  4.0929927738442D-01  1.2623202528413D+00
    96  9.5000000000000D-01  3.8572208133711D-01  1.2748070581656D+00
    97  9.6000000000000D-01  3.6260302326424D-01  1.2857986222295D+00
    98  9.7000000000000D-01  3.3996106368815D-01  1.2952953271132D+00
    99  9.8000000000000D-01  3.1781359385356D-01  1.3033008160087D+00
   100  9.9000000000000D-01  2.9617644410153D-01  1.3098219312870D+00
   101  1.0000000000000D+00  2.7506389631955D-01  1.3148686444295D+00
   102  1.0100000000000D+00  2.5448870033753D-01  1.3184539781478D+00
   103  1.0200000000000D+00  2.3446209412875D-01  1.3205939210387D+00
   104  1.0300000000000D+00  2.1499382766420D-01  1.3213073351437D+00
   105  1.0400000000000D+00  1.9609219025928D-01  1.3206158567995D+00
   106  1.0500000000000D+00  1.7776404124291D-01  1.3185437911847D+00
   107  1.0600000000000D+00  1.6001484377044D-01  1.3151180009858D+00
   108  1.0700000000000D+00  1.4284870159499D-01  1.3103677896172D+00
   109  1.0800000000000D+00  1.2626839860432D-01  1.3043247794452D+00
   110  1.0900000000000D+00  1.1027544092466D-01  1.2970227854776D+00
   111  1.1000000000000D+00  9.4870101388066D-02  1.2884976849891D+00
   112  1.1100000000000D+00  8.0051466154953D-02  1.2787872835601D+00
   113  1.1200000000000D+00  6.5817483280619D-02  1.2679311780148D+00
   114  1.1300000000000D+00  5.2165013011178D-02  1.2559706167458D+00
   115  1.1400000000000D+00  3.9089879592892D-02  1.2429483579191D+00
   116  1.1500000000000D+00  2.6586924377966D-02  1.2289085260485D+00
   117  1.1600000000000D+00  1.4650060009269D-02  1.2138964674340D+00
   118  1.1700000000000D+00  3.2723254673063D-03  1.1979586049498D+00
   119  1.1800000000000D+00 -7.5540582356497D-03  1.1811422926677D+00
   120  1.1900000000000D+00 -1.7837631927064D-02  1.1634956707918D+00
   121  1.2000000000000D+00 -2.7587641921941D-02  1.1450675213762D+00
   122  1.2100000000000D+00 -3.6813983652638D-02  1.1259071252853D+00
   123  1.2200000000000D+00 -4.5527145481300D-02  1.1060641208427D+00
   124  1.2300000000000D+00 -5.3738152893486D-02  1.0855883646102D+00
   125  1.2400000000000D+00 -6.1458513261963D-02  1.0645297947164D+00
   126  1.2500000000000D+00 -6.8700161363428D-02  1.0429382971386D+00
   127  1.2600000000000D+00 -7.5475405827098D-02  1.0208635753328D+00
   128  1.2700000000000D+00 -8.1796876683193D-02  9.9835502358201D-01
   129  1.2800000000000D+00 -8.7677474169017D-02  9.7546160440870D-01
   130  1.2900000000000D+00 -9.3130318947897D-02  9.5223173039176D-01
   131  1.3000000000000D+00 -9.8168703882319D-02  9.2871315069587D-01
   132  1.3100000000000D+00 -1.0280604748889D-01  9.0495284259041D-01
   133  1.3200000000000D+00 -1.0705584920434D-01  8.8099690823846D-01
   134  1.3300000000000D+00 -1.1093164657113D-01  8.5689047698896D-01
   135  1.3400000000000D+00 -1.1444697443696D-01  8.3267761337321D-01
   136  1.3500000000000D+00 -1.1761532627188D-01  8.0840123102771D-01
   137  1.3600000000000D+00 -1.2045011766858D-01  7.8410301267869D-01
   138  1.3700000000000D+00 -1.2296465209527D-01  7.5982333633306D-01
   139  1.3800000000000D+00 -1.2517208896688D-01  7.3560120781084D-01
   140  1.3900000000000D+00 -1.2708541406089D-01  7.1147419966580D-01
   141  1.4000000000000D+00 -1.2871741232630D-01  6.8747839659045D-01
   142  1.4100000000000D+00 -1.3008064310038D-01  6.6364834732532D-01
   143  1.4200000000000D+00 -1.3118741773392D-01  6.4001702305969D-01
   144  1.4300000000000D+00 -1.3204977964547D-01  6.1661578235698D-01
   145  1.4400000000000D+00 -1.3267948676384D-01  5.9347434249741D-01
   146  1.4500000000000D+00 -1.3308799635870D-01  5.7062075722365D-01
   147  1.4600000000000D+00 -1.3328645221332D-01  5.4808140077032D-01
   148  1.4700000000000D+00 -1.3328567409123D-01  5.2588095805196D-01
   149  1.4800000000000D+00 -1.3309614946170D-01  5.0404242091594D-01
   150  1.4900000000000D+00 -1.3272802738927D-01  4.8258709022692D-01
   151  1.5000000000000D+00 -1.3219111455089D-01  4.6153458368623D-01
   152  1.5100000000000D+00 -1.3149487326579D-01  4.4090284910594D-01
   153  1.5200000000000D+00 -1.3064842147309D-01  4.2070818297384D-01
   154  1.5300000000000D+00 -1.2966053454809D-01  4.0096525404303D-01
   155  1.5400000000000D+00 -1.2853964885390D-01  3.8168713169116D-01
   156  1.5500000000000D+00 -1.2729386692848D-01  3.6288531880504D-01
   157  1.5600000000000D+00 -1.2593096417262D-01  3.4456978885990D-01
   158  1.5700000000000D+00 -1.2445839694281D-01  3.2674902695933D-01
   159  1.5800000000000D+00 -1.2288331189579D-01  3.0943007445749D-01
   160  1.5900000000000D+00 -1.2121255648328D-01  2.9261857691756D-01
   161  1.6000000000000D+00 -1.1945269044046D-01  2.7631883501679D-01
   162  1.6100000000000D+00 -1.1760999815248D-01  2.6053385811784D-01
   163  1.6200000000000D+00 -1.1569050174898D-01  2.4526542012973D-01
   164  1.6300000000000D+00 -1.1369997479813D-01  2.3051411734472D-01
   165  1.6400000000000D+00 -1.1164395645662D-01  2.1627942788826D-01
   166  1.6500000000000D+00 -1.0952776594114D-01  2.0255977245027D-01
   167  1.6600000000000D+00 -1.0735651718255D-01  1.8935257594478D-01
   168  1.6700000000000D+00 -1.0513513352899D-01  1.7665432976285D-01
   169  1.6800000000000D+00 -1.0286836236341D-01  1.6446065427433D-01
   170  1.6900000000000D+00 -1.0056078950680D-01  1.5276636125088D-01
   171  1.7000000000000D+00 -9.8216853278731D-02  1.4156551587712D-01
   172  1.7100000000000D+00 -9.5840858093376D-02  1.3085149803502D-01
   173  1.7200000000000D+00 -9.3436987473029D-02  1.2061706254904D-01
   174  1.7300000000000D+00 -9.1009316362490D-02  1.1085439808645D-01
   175  1.7400000000000D+00 -8.8561822644940D-02  1.0155518443871D-01
   176  1.7500000000000D+00 -8.6098397741415D-02  9.2710647874816D-02
   177  1.7600000000000D+00 -8.3622856225613D-02  8.4311614357655D-02
   178  1.7700000000000D+00 -8.1138944323802D-02  7.6348560287167D-02
   179  1.7800000000000D+00 -7.8650347279145D-02  6.8811660663325D-02
   180  1.7900000000000D+00 -7.6160695422481D-02  6.1690834271373D-02
   181  1.8000000000000D+00 -7.3673568996063D-02  5.4975785929316D-02
   182  1.8100000000000D+00 -7.1192501526467D-02  4.8656045297045D-02
   183  1.8200000000000D+00 -6.8720981879010D-02  4.2721002478820D-02
   184  1.8300000000000D+00 -6.6262454738213D-02  3.7159939799197D-02
   185  1.8400000000000D+00 -6.3820319712887D-02  3.1962060136895D-02
   186  1.8500000000000D+00 -6.1397928813332D-02  2.7116511195851D-02
   187  1.8600000000000D+00 -5.8998582490621D-02  2.2612406086336D-02
   188  1.8700000000000D+00 -5.6625524064342D-02  1.8438839765597D-02
   189  1.8800000000000D+00 -5.4281932655472D-02  1.4584901551000D-02
   190  1.8900000000000D+00 -5.1970914581341D-02  1.1039683548996D-02
   191  1.9000000000000D+00 -4.9695493214302D-02  7.7922849496763D-03
   192  1.9100000000000D+00 -4.7458597423816D-02  4.8318124101290D-03
   193  1.9200000000000D+00 -4.5263048466611D-02  2.1473761491036D-03
   194  1.9300000000000D+00 -4.3111545606793D-02 -2.7191762907542D-04
   195  1.9400000000000D+00 -4.1006650237253D-02 -2.4369785960545D-03
   196  1.9500000000000D+00 -3.8950768826482D-02 -4.3587477112948D-03
   197  1.9600000000000D+00 -3.6946134552754D-02 -6.0482165919963D-03
   198  1.9700000000000D+00 -3.4994787806789D-02 -7.5164504472445D-03
   199  1.9800000000000D+00 -3.3098555596902D-02 -8.7746145694659D-03
   200  1.9900000000000D+00 -3.1259028677428D-02 -9.8340078168154D-03
   201  2.0000000000000D+00 -2.9477545037341D-02 -1.0706078584680D-02
   202  2.0100000000000D+00 -2.7755149446117D-02 -1.1402509191724D-02
   203  2.0200000000000D+00 -2.6092603124738D-02 -1.1935160693638D-02
   204  2.0300000000000D+00 -2.4490342602589D-02 -1.2316159410366D-02
   205  2.0400000000000D+00 -2.2948421988870D-02 -1.2558032758596D-02
   206  2.0500000000000D+00 -2.1466451431033D-02 -1.2673861591228D-02
   207  2.0600000000000D+00 -2.0043759222578D-02 -1.2676791674588D-02
   208  2.0700000000000D+00 -1.8679450688617D-02 -1.2579832423032D-02
   209  2.0800000000000D+00 -1.7372491908626D-02 -1.2395620957900D-02
   210  2.0900000000000D+00 -1.6121829496703D-02 -1.2136081276101D-02
   211  2.1000000000000D+00 -1.4926490474387D-02 -1.1812143846849D-02
   212  2.1100000000000D+00 -1.3785511329441D-02 -1.1433955436687D-02
   213  2.1200000000000D+00 -1.2697900446851D-02 -1.1011004875861D-02
   214  2.1300000000000D+00 -1.1662672367968D-02 -1.0552031729750D-02
   215  2.1400000000000D+00 -1.0678840707714D-02 -1.0065059284792D-02
   216  2.1500000000000D+00 -9.7454086826857D-03 -9.5574356483835D-03
   217  2.1600000000000D+00 -8.8613708779658D-03 -9.0358431169599D-03
   218  2.1700000000000D+00 -8.0257088765291D-03 -8.5063263889226D-03
   219  2.1800000000000D+00 -7.2373883011927D-03 -7.9743179519076D-03
   220  2.1900000000000D+00 -6.4953559308377D-03 -7.4446643265385D-03
   221  2.2000000000000D+00 -5.7985369230865D-03 -6.9216530459166D-03
   222  2.2100000000000D+00 -5.1458323482513D-03 -6.4090400466068D-03
   223  2.2200000000000D+00 -4.5361168434515D-03 -5.9100776186052D-03
   224  2.2300000000000D+00 -3.9682366214141D-03 -5.4275425233510D-03
   225  2.2400000000000D+00 -3.4410078358921D-03 -4.9637641919220D-03
   226  2.2500000000000D+00 -2.9532151479181D-03 -4.5206531682990D-03
   227  2.2600000000000D+00 -2.5036108709372D-03 -4.0997291307682D-03
   228  2.2700000000000D+00 -2.0909144021812D-03 -3.7021488857570D-03
   229  2.2800000000000D+00 -1.7138120478936D-03 -3.3287340927265D-03
   230  2.2900000000000D+00 -1.3709574502204D-03 -2.9799982872945D-03
   231  2.3000000000000D+00 -1.0609722905706D-03 -2.6561737054677D-03
   232  2.3100000000000D+00 -7.8244754714087D-04 -2.3572373409385D-03
   233  2.3200000000000D+00 -5.3394527790825D-04 -2.0829362145008D-03
   234  2.3300000000000D+00 -3.1400068695653D-04 -1.8328122497724D-03
   235  2.3400000000000D+00 -1.2112484388281D-04 -1.6062259696868D-03
   236  2.3500000000000D+00  4.6192195589779D-05 -1.4023794336661D-03
   237  2.3600000000000D+00  1.8947797453468D-04 -1.2203385752242D-03
   238  2.3700000000000D+00  3.1027355382658D-04 -1.0590540935695D-03
   239  2.3800000000000D+00  4.1012918216589D-04 -9.1738170241388D-04
   240  2.3900000000000D+00  4.9059961472973D-04 -7.9410145725546D-04
   241  2.4000000000000D+00  5.5323892390574D-04 -6.8793572543268D-04
   242  2.4100000000000D+00  5.9959512192507D-04 -5.9756645884421D-04
   243  2.4200000000000D+00  6.3120446887804D-04 -5.2165139763848D-04
   244  2.4300000000000D+00  6.4958544096448D-04 -4.5883904667462D-04
   245  2.4400000000000D+00  6.5623257791420D-04 -4.0778292292314D-04
   246  2.4500000000000D+00  6.5261010766553D-04 -3.6715469289444D-04
   247  2.4600000000000D+00  6.4014540022411D-04 -3.3565623831053D-04
   248  2.4700000000000D+00  6.2022237231193D-04 -3.1203098126359D-04
   249  2.4800000000000D+00  5.9417480869804D-04 -2.9507415942273D-04
   250  2.4900000000000D+00  5.6327966969717D-04 -2.8364218340918D-04
   251  2.5000000000000D+00  5.2875042397479D-04 -2.7666126260180D-04
   252  2.5100000000000D+00  4.9173046979395D-04 -2.7313512193002D-04
   253  2.5200000000000D+00  4.5328668176742D-04 -2.7215193851856D-04
   254  2.5300000000000D+00  4.1440306345860D-04 -2.7289058807542D-04
   255  2.5400000000000D+00  3.7597466245901D-04 -2.7462615091746D-04
   256  2.5500000000000D+00  3.3880175054740D-04 -2.7673479824050D-04
   257  2.5600000000000D+00  3.0358413101451D-04 -2.7869790412997D-04
   258  2.5700000000000D+00  2.7091594330711D-04 -2.8010578290721D-04
   259  2.5800000000000D+00  2.4143057809240D-04 -2.8097213570031D-04
   260  2.5900000000000D+00  2.1532560392996D-04 -2.8075870697333D-04
   261  2.6000000000000D+00  1.9261513856015D-04 -2.7891044076402D-04
   262  2.6100000000000D+00  1.7249930930325D-04 -2.7368008278024D-04
   263  2.6200000000000D+00  1.5604857087249D-04 -2.6735629309847D-04
   264  2.6300000000000D+00  1.4549690836933D-04 -2.6488359974949D-04
   265  2.6400000000000D+00  1.4309104688099D-04 -2.7149216876390D-04
   266  2.6500000000000D+00  1.4601901807724D-04 -2.8300257052929D-04
   267  2.6600000000000D+00  1.4258758583454D-04 -2.7845623479118D-04
   268  2.6700000000000D+00  1.2355158525746D-04 -2.4156104871104D-04
   269  2.6800000000000D+00  8.2824638626302D-05 -1.6195046453373D-04
   270  2.6900000000000D+00  3.7437532052902D-05 -7.3147341591379D-05
   271  2.7000000000000D+00 -5.9651608195054D-07  1.1696608197917D-06
   272  2.7100000000000D+00 -1.3038512861735D-05  2.5570229749594D-05
   273  2.7200000000000D+00 -1.1433603433527D-05  2.2423776590870D-05
   274  2.7300000000000D+00 -2.2016522670697D-06  4.3178273221612D-06
   275  2.7400000000000D+00  2.3882203855921D-06 -4.6931108149277D-06
   276  2.7500000000000D+00  2.9957739556129D-06 -5.8883813667036D-06
   277  2.7600000000000D+00  1.2663275713592D-06 -2.4895333711905D-06
   278  2.7700000000000D+00 -1.9465590268431D-07  3.8048207850496D-07
   279  2.7800000000000D+00 -3.7092760335560D-07  7.2502967314836D-07
   280  2.7900000000000D+00 -2.4450574310524D-07  4.7792053598272D-07
   281  2.8000000000000D+00  0.0000000000000D+00  0.0000000000000D+00
   282  2.8100000000000D+00  0.0000000000000D+00  0.0000000000000D+00
   283  2.8200000000000D+00  0.0000000000000D+00  0.0000000000000D+00
   284  2.8300000000000D+00  0.0000000000000D+00  0.0000000000000D+00
   285  2.8400000000000D+00  0.0000000000000D+00  0.0000000000000D+00
   286  2.8500000000000D+00  0.0000000000000D+00  0.0000000000000D+00
   287  2.8600000000000D+00  0.0000000000000D+00  0.0000000000000D+00
   288  2.8700000000000D+00  0.0000000000000D+00  0.0000000000000D+00
   289  2.8800000000000D+00  0.0000000000000D+00  0.0000000000000D+00
   290  2.8900000000000D+00  0.0000000000000D+00  0.0000000000000D+00
   291  2.9000000000000D+00  0.0000000000000D+00  0.0000000000000D+00
   292  2.9100000000000D+00  0.0000000000000D+00  0.0000000000000D+00
   293  2.9200000000000D+00  0.0000000000000D+00  0.0000000000000D+00
   294  2.9300000000000D+00  0.0000000000000D+00  0.0000000000000D+00
   295  2.9400000000000D+00  0.0000000000000D+00  0.0000000000000D+00
   296  2.9500000000000D+00  0.0000000000000D+00  0.0000000000000D+00
   297  2.9600000000000D+00  0.0000000000000D+00  0.0000000000000D+00
   298  2.9700000000000D+00  0.0000000000000D+00  0.0000000000000D+00
   299  2.9800000000000D+00  0.0000000000000D+00  0.0000000000000D+00
   300  2.9900000000000D+00  0.0000000000000D+00  0.0000000000000D+00
   301  3.0000000000000D+00  0.0000000000000D+00  0.0000000000000D+00
   302  3.0100000000000D+00  0.0000000000000D+00  0.0000000000000D+00
   303  3.0200000000000D+00  0.0000000000000D+00  0.0000000000000D+00
   304  3.0300000000000D+00  0.0000000000000D+00  0.0000000000000D+00
   305  3.0400000000000D+00  0.0000000000000D+00  0.0000000000000D+00
   306  3.0500000000000D+00  0.0000000000000D+00  0.0000000000000D+00
   307  3.0600000000000D+00  0.0000000000000D+00  0.0000000000000D+00
   308  3.0700000000000D+00  0.0000000000000D+00  0.0000000000000D+00
   309  3.0800000000000D+00  0.0000000000000D+00  0.0000000000000D+00
   310  3.0900000000000D+00  0.0000000000000D+00  0.0000000000000D+00
   311  3.1000000000000D+00  0.0000000000000D+00  0.0000000000000D+00
   312  3.1100000000000D+00  0.0000000000000D+00  0.0000000000000D+00
   313  3.1200000000000D+00  0.0000000000000D+00  0.0000000000000D+00
   314  3.1300000000000D+00  0.0000000000000D+00  0.0000000000000D+00
   315  3.1400000000000D+00  0.0000000000000D+00  0.0000000000000D+00
   316  3.1500000000000D+00  0.0000000000000D+00  0.0000000000000D+00
   317  3.1600000000000D+00  0.0000000000000D+00  0.0000000000000D+00
   318  3.1700000000000D+00  0.0000000000000D+00  0.0000000000000D+00
   319  3.1800000000000D+00  0.0000000000000D+00  0.0000000000000D+00
   320  3.1900000000000D+00  0.0000000000000D+00  0.0000000000000D+00
   321  3.2000000000000D+00  0.0000000000000D+00  0.0000000000000D+00
   322  3.2100000000000D+00  0.0000000000000D+00  0.0000000000000D+00
   323  3.2200000000000D+00  0.0000000000000D+00  0.0000000000000D+00
   324  3.2300000000000D+00  0.0000000000000D+00  0.0000000000000D+00
   325  3.2400000000000D+00  0.0000000000000D+00  0.0000000000000D+00
   326  3.2500000000000D+00  0.0000000000000D+00  0.0000000000000D+00
   327  3.2600000000000D+00  0.0000000000000D+00  0.0000000000000D+00
   328  3.2700000000000D+00  0.0000000000000D+00  0.0000000000000D+00
   329  3.2800000000000D+00  0.0000000000000D+00  0.0000000000000D+00
   330  3.2900000000000D+00  0.0000000000000D+00  0.0000000000000D+00
   331  3.3000000000000D+00  0.0000000000000D+00  0.0000000000000D+00
   332  3.3100000000000D+00  0.0000000000000D+00  0.0000000000000D+00
   333  3.3200000000000D+00  0.0000000000000D+00  0.0000000000000D+00
   334  3.3300000000000D+00  0.0000000000000D+00  0.0000000000000D+00
   335  3.3400000000000D+00  0.0000000000000D+00  0.0000000000000D+00
   336  3.3500000000000D+00  0.0000000000000D+00  0.0000000000000D+00
   337  3.3600000000000D+00  0.0000000000000D+00  0.0000000000000D+00
   338  3.3700000000000D+00  0.0000000000000D+00  0.0000000000000D+00
   339  3.3800000000000D+00  0.0000000000000D+00  0.0000000000000D+00
   340  3.3900000000000D+00  0.0000000000000D+00  0.0000000000000D+00
   341  3.4000000000000D+00  0.0000000000000D+00  0.0000000000000D+00
   342  3.4100000000000D+00  0.0000000000000D+00  0.0000000000000D+00
   343  3.4200000000000D+00  0.0000000000000D+00  0.0000000000000D+00
   344  3.4300000000000D+00  0.0000000000000D+00  0.0000000000000D+00
   345  3.4400000000000D+00  0.0000000000000D+00  0.0000000000000D+00
   346  3.4500000000000D+00  0.0000000000000D+00  0.0000000000000D+00
   347  3.4600000000000D+00  0.0000000000000D+00  0.0000000000000D+00
   348  3.4700000000000D+00  0.0000000000000D+00  0.0000000000000D+00
   349  3.4800000000000D+00  0.0000000000000D+00  0.0000000000000D+00
   350  3.4900000000000D+00  0.0000000000000D+00  0.0000000000000D+00
   351  3.5000000000000D+00  0.0000000000000D+00  0.0000000000000D+00
   352  3.5100000000000D+00  0.0000000000000D+00  0.0000000000000D+00
   353  3.5200000000000D+00  0.0000000000000D+00  0.0000000000000D+00
   354  3.5300000000000D+00  0.0000000000000D+00  0.0000000000000D+00
   355  3.5400000000000D+00  0.0000000000000D+00  0.0000000000000D+00
   356  3.5500000000000D+00  0.0000000000000D+00  0.0000000000000D+00
   357  3.5600000000000D+00  0.0000000000000D+00  0.0000000000000D+00
   358  3.5700000000000D+00  0.0000000000000D+00  0.0000000000000D+00
   359  3.5800000000000D+00  0.0000000000000D+00  0.0000000000000D+00
   360  3.5900000000000D+00  0.0000000000000D+00  0.0000000000000D+00
   361  3.6000000000000D+00  0.0000000000000D+00  0.0000000000000D+00
   362  3.6100000000000D+00  0.0000000000000D+00  0.0000000000000D+00
   363  3.6200000000000D+00  0.0000000000000D+00  0.0000000000000D+00
   364  3.6300000000000D+00  0.0000000000000D+00  0.0000000000000D+00
   365  3.6400000000000D+00  0.0000000000000D+00  0.0000000000000D+00
   366  3.6500000000000D+00  0.0000000000000D+00  0.0000000000000D+00
   367  3.6600000000000D+00  0.0000000000000D+00  0.0000000000000D+00
   368  3.6700000000000D+00  0.0000000000000D+00  0.0000000000000D+00
   369  3.6800000000000D+00  0.0000000000000D+00  0.0000000000000D+00
   370  3.6900000000000D+00  0.0000000000000D+00  0.0000000000000D+00
   371  3.7000000000000D+00  0.0000000000000D+00  0.0000000000000D+00
   372  3.7100000000000D+00  0.0000000000000D+00  0.0000000000000D+00
   373  3.7200000000000D+00  0.0000000000000D+00  0.0000000000000D+00
   374  3.7300000000000D+00  0.0000000000000D+00  0.0000000000000D+00
   375  3.7400000000000D+00  0.0000000000000D+00  0.0000000000000D+00
   376  3.7500000000000D+00  0.0000000000000D+00  0.0000000000000D+00
   377  3.7600000000000D+00  0.0000000000000D+00  0.0000000000000D+00
   378  3.7700000000000D+00  0.0000000000000D+00  0.0000000000000D+00
   379  3.7800000000000D+00  0.0000000000000D+00  0.0000000000000D+00
   380  3.7900000000000D+00  0.0000000000000D+00  0.0000000000000D+00
   381  3.8000000000000D+00  0.0000000000000D+00  0.0000000000000D+00
   382  3.8100000000000D+00  0.0000000000000D+00  0.0000000000000D+00
   383  3.8200000000000D+00  0.0000000000000D+00  0.0000000000000D+00
   384  3.8300000000000D+00  0.0000000000000D+00  0.0000000000000D+00
   385  3.8400000000000D+00  0.0000000000000D+00  0.0000000000000D+00
   386  3.8500000000000D+00  0.0000000000000D+00  0.0000000000000D+00
   387  3.8600000000000D+00  0.0000000000000D+00  0.0000000000000D+00
   388  3.8700000000000D+00  0.0000000000000D+00  0.0000000000000D+00
   389  3.8800000000000D+00  0.0000000000000D+00  0.0000000000000D+00
   390  3.8900000000000D+00  0.0000000000000D+00  0.0000000000000D+00
   391  3.9000000000000D+00  0.0000000000000D+00  0.0000000000000D+00
   392  3.9100000000000D+00  0.0000000000000D+00  0.0000000000000D+00
   393  3.9200000000000D+00  0.0000000000000D+00  0.0000000000000D+00
   394  3.9300000000000D+00  0.0000000000000D+00  0.0000000000000D+00
   395  3.9400000000000D+00  0.0000000000000D+00  0.0000000000000D+00
   396  3.9500000000000D+00  0.0000000000000D+00  0.0000000000000D+00
   397  3.9600000000000D+00  0.0000000000000D+00  0.0000000000000D+00
   398  3.9700000000000D+00  0.0000000000000D+00  0.0000000000000D+00
   399  3.9800000000000D+00  0.0000000000000D+00  0.0000000000000D+00
   400  3.9900000000000D+00  0.0000000000000D+00  0.0000000000000D+00
   401  4.0000000000000D+00  0.0000000000000D+00  0.0000000000000D+00
   402  4.0100000000000D+00  0.0000000000000D+00  0.0000000000000D+00
   403  4.0200000000000D+00  0.0000000000000D+00  0.0000000000000D+00
   404  4.0300000000000D+00  0.0000000000000D+00  0.0000000000000D+00
   405  4.0400000000000D+00  0.0000000000000D+00  0.0000000000000D+00
   406  4.0500000000000D+00  0.0000000000000D+00  0.0000000000000D+00
   407  4.0600000000000D+00  0.0000000000000D+00  0.0000000000000D+00
   408  4.0700000000000D+00  0.0000000000000D+00  0.0000000000000D+00
   409  4.0800000000000D+00  0.0000000000000D+00  0.0000000000000D+00
   410  4.0900000000000D+00  0.0000000000000D+00  0.0000000000000D+00
   411  4.1000000000000D+00  0.0000000000000D+00  0.0000000000000D+00
   412  4.1100000000000D+00  0.0000000000000D+00  0.0000000000000D+00
   413  4.1200000000000D+00  0.0000000000000D+00  0.0000000000000D+00
   414  4.1300000000000D+00  0.0000000000000D+00  0.0000000000000D+00
   415  4.1400000000000D+00  0.0000000000000D+00  0.0000000000000D+00
   416  4.1500000000000D+00  0.0000000000000D+00  0.0000000000000D+00
   417  4.1600000000000D+00  0.0000000000000D+00  0.0000000000000D+00
   418  4.1700000000000D+00  0.0000000000000D+00  0.0000000000000D+00
   419  4.1800000000000D+00  0.0000000000000D+00  0.0000000000000D+00
   420  4.1900000000000D+00  0.0000000000000D+00  0.0000000000000D+00
   421  4.2000000000000D+00  0.0000000000000D+00  0.0000000000000D+00
   422  4.2100000000000D+00  0.0000000000000D+00  0.0000000000000D+00