He    ONCVPSP-3.3.1  r_core=   2.01394
      2.0000      2.0000      210904    zatom,zion,pspd
     8      11   0     4   600     0    pspcod,pspxc,lmax,lloc,mmax,r2well
  5.99000000  0.00000000  0.00000000    rchrg fchrg qchrg
     2     0     0     0     0    nproj
     1     1           extension_switch
   0                        -1.7598869484472D+00 -6.3768193062160D-01
     1  0.0000000000000D+00  7.9798945229470D-11 -9.3003035828154D-11
     2  1.0000000000000D-02  5.3399553592253D-02 -1.1830226047280D-02
     3  2.0000000000000D-02  1.0675221521981D-01 -2.3621971668219D-02
     4  3.0000000000000D-02  1.6001087042423D-01 -3.5336572706456D-02
     5  4.0000000000000D-02  2.1312796241649D-01 -4.6935000373956D-02
     6  5.0000000000000D-02  2.6605527753392D-01 -5.8377685982480D-02
     7  6.0000000000000D-02  3.1874373858697D-01 -6.9624354065757D-02
     8  7.0000000000000D-02  3.7114320863188D-01 -8.0633866579692D-02
     9  8.0000000000000D-02  4.2320230762534D-01 -9.1364080774910D-02
    10  9.0000000000000D-02  4.7486824431850D-01 -1.0177172322096D-01
    11  1.0000000000000D-01  5.2608666563071D-01 -1.1181228232511D-01
    12  1.1000000000000D-01  5.7680152560872D-01 -1.2143992153197D-01
    13  1.2000000000000D-01  6.2695497592598D-01 -1.3060741521443D-01
    14  1.3000000000000D-01  6.7648727970977D-01 -1.3926610907202D-01
    15  1.4000000000000D-01  7.2533675030278D-01 -1.4736590664233D-01
    16  1.5000000000000D-01  7.7343971637109D-01 -1.5485528330500D-01
    17  1.6000000000000D-01  8.2073051456416D-01 -1.6168132891801D-01
    18  1.7000000000000D-01  8.6714151071532D-01 -1.6778981997420D-01
    19  1.8000000000000D-01  9.1260315034517D-01 -1.7312532190411D-01
    20  1.9000000000000D-01  9.5704403899685D-01 -1.7763132188060D-01
    21  2.0000000000000D-01  1.0003910526924D+00 -1.8125039220407D-01
    22  2.1000000000000D-01  1.0425694785559D+00 -1.8392438406571D-01
    23  2.2000000000000D-01  1.0835031854027D+00 -1.8559465120238D-01
    24  2.3000000000000D-01  1.1231148238469D+00 -1.8620230267317D-01
    25  2.4000000000000D-01  1.1613260552331D+00 -1.8568848370488D-01
    26  2.5000000000000D-01  1.1980578084546D+00 -1.8399468327586D-01
    27  2.6000000000000D-01  1.2332305634820D+00 -1.8106306683525D-01
    28  2.7000000000000D-01  1.2667646601920D+00 -1.7683683229062D-01
    29  2.8000000000000D-01  1.2985806308618D+00 -1.7126058714314D-01
    30  2.9000000000000D-01  1.3285995544791D+00 -1.6428074440789D-01
    31  3.0000000000000D-01  1.3567434308123D+00 -1.5584593472949D-01
    32  3.1000000000000D-01  1.3829355719947D+00 -1.4590743189201D-01
    33  3.2000000000000D-01  1.4071010091977D+00 -1.3441958872866D-01
    34  3.3000000000000D-01  1.4291669118078D+00 -1.2134028026310D-01
    35  3.4000000000000D-01  1.4490630163731D+00 -1.0663135076137D-01
    36  3.5000000000000D-01  1.4667220624628D+00 -9.0259061243745D-02
    37  3.6000000000000D-01  1.4820802324690D+00 -7.2194533899133D-02
    38  3.7000000000000D-01  1.4950775922977D+00 -5.2414189764072D-02
    39  3.8000000000000D-01  1.5056585298230D+00 -3.0900175972750D-02
    40  3.9000000000000D-01  1.5137721879357D+00 -7.6407788562083D-03
    41  4.0000000000000D-01  1.5193728889930D+00  1.7369180832036D-02
    42  4.1000000000000D-01  1.5224205474730D+00  4.4127974260428D-02
    43  4.2000000000000D-01  1.5228810676588D+00  7.2626616075288D-02
    44  4.3000000000000D-01  1.5207267232220D+00  1.0284854472763D-01
    45  4.4000000000000D-01  1.5159365156391D+00  1.3476933501968D-01
    46  4.5000000000000D-01  1.5084965084639D+00  1.6835644618302D-01
    47  4.6000000000000D-01  1.4984001345871D+00  2.0356900863594D-01
    48  4.7000000000000D-01  1.4856484737483D+00  2.4035765237840D-01
    49  4.8000000000000D-01  1.4702504977129D+00  2.7866437976868D-01
    50  4.9000000000000D-01  1.4522232807005D+00  3.1842248518880D-01
    51  5.0000000000000D-01  1.4315921728391D+00  3.5955652384645D-01
    52  5.1000000000000D-01  1.4083909346237D+00  4.0198233168258D-01
    53  5.2000000000000D-01  1.3826618305846D+00  4.4560709805647D-01
    54  5.3000000000000D-01  1.3544556806000D+00  4.9032949256728D-01
    55  5.4000000000000D-01  1.3238318675428D+00  5.3603984704423D-01
    56  5.5000000000000D-01  1.2908583002055D+00  5.8262039339928D-01
    57  5.6000000000000D-01  1.2556113307178D+00  6.2994555768962D-01
    58  5.7000000000000D-01  1.2181756259481D+00  6.7788231038337D-01
    59  5.8000000000000D-01  1.1786439926567D+00  7.2629057246601D-01
    60  5.9000000000000D-01  1.1371171564551D+00  7.7502367666695D-01
    61  6.0000000000000D-01  1.0937034949087D+00  8.2392888273096D-01
    62  6.1000000000000D-01  1.0485187254029D+00  8.7284794530835D-01
    63  6.2000000000000D-01  1.0016855486720D+00  9.2161773269639D-01
    64  6.3000000000000D-01  9.5333324916428D-01  9.7007089433144D-01
    65  6.4000000000000D-01  9.0359725368263D-01  1.0180365746149D+00
    66  6.5000000000000D-01  8.5261864999717D-01  1.0653411703529D+00
    67  6.6000000000000D-01  8.0054366736937D-01  1.1118091288078D+00
    68  6.7000000000000D-01  7.4752312115957D-01  1.1572637830976D+00
    69  6.8000000000000D-01  6.9371182390423D-01  1.2015282214420D+00
    70  6.9000000000000D-01  6.3926796544773D-01  1.2444261865437D+00
    71  7.0000000000000D-01  5.8435246489273D-01  1.2857830012070D+00
    72  7.1000000000000D-01  5.2912829729114D-01  1.3254265161460D+00
    73  7.2000000000000D-01  4.7375979813583D-01  1.3631880758107D+00
    74  7.3000000000000D-01  4.1841194882683D-01  1.3989034979705D+00
    75  7.4000000000000D-01  3.6324964637617D-01  1.4324140627390D+00
    76  7.5000000000000D-01  3.0843696068147D-01  1.4635675067051D+00
    77  7.6000000000000D-01  2.5413638273872D-01  1.4922190178491D+00
    78  7.7000000000000D-01  2.0050806717968D-01  1.5182322269715D+00
    79  7.8000000000000D-01  1.4770907250839D-01  1.5414801914514D+00
    80  7.9000000000000D-01  9.5892602374543D-02  1.5618463672681D+00
    81  8.0000000000000D-01  4.5207251159114D-02  1.5792255653769D+00
    82  8.1000000000000D-01 -4.2037429396526D-03  1.5935248887179D+00
    83  8.2000000000000D-01 -5.2203234243757D-02  1.6046646463555D+00
    84  8.3000000000000D-01 -9.8660892415719D-02  1.6125792414992D+00
    85  8.4000000000000D-01 -1.4345390897892D-01  1.6172180304319D+00
    86  8.5000000000000D-01 -1.8646768493448D-01  1.6185461496803D+00
    87  8.6000000000000D-01 -2.2759649707032D-01  1.6165453090895D+00
    88  8.7000000000000D-01 -2.6674414092403D-01  1.6112145499302D+00
    89  8.8000000000000D-01 -3.0382454856838D-01  1.6025709659147D+00
    90  8.9000000000000D-01 -3.3876236998069D-01  1.5906503240323D+00
    91  9.0000000000000D-01 -3.7149356785672D-01  1.5755079451261D+00
    92  9.1000000000000D-01 -4.0196559077344D-01  1.5572166690375D+00
    93  9.2000000000000D-01 -4.3013695759889D-01  1.5358619046894D+00
    94  9.3000000000000D-01 -4.5597688174107D-01  1.5115388814528D+00
    95  9.4000000000000D-01 -4.7946515070339D-01  1.4843525625488D+00
    96  9.5000000000000D-01 -5.0059192859166D-01  1.4544171853695D+00
    97  9.6000000000000D-01 -5.1935752321371D-01  1.4218558187369D+00
    98  9.7000000000000D-01 -5.3577211323726D-01  1.3867998729406D+00
    99  9.8000000000000D-01 -5.4985543679415D-01  1.3493885642999D+00
   100  9.9000000000000D-01 -5.6163644356449D-01  1.3097683382876D+00
   101  1.0000000000000D+00 -5.7115291240763D-01  1.2680922542547D+00
   102  1.0100000000000D+00 -5.7845103677389D-01  1.2245193350297D+00
   103  1.0200000000000D+00 -5.8358498028456D-01  1.1792138848902D+00
   104  1.0300000000000D+00 -5.8661640501090D-01  1.1323447796176D+00
   105  1.0400000000000D+00 -5.8761397511461D-01  1.0840847325492D+00
   106  1.0500000000000D+00 -5.8665283861124D-01  1.0346095406585D+00
   107  1.0600000000000D+00 -5.8381409013135D-01  9.8409731487984D-01
   108  1.0700000000000D+00 -5.7918421761987D-01  9.3272769896729D-01
   109  1.0800000000000D+00 -5.7285453598198D-01  8.8068108126947D-01
   110  1.0900000000000D+00 -5.6492061073027D-01  8.2813780386930D-01
   111  1.1000000000000D+00 -5.5548167471099D-01  7.7527737354424D-01
   112  1.1100000000000D+00 -5.4464004099466D-01  7.2227767899197D-01
   113  1.1200000000000D+00 -5.3250051502671D-01  6.6931421880316D-01
   114  1.1300000000000D+00 -5.1916980910840D-01  6.1655934461174D-01
   115  1.1400000000000D+00 -5.0475596191098D-01  5.6418152267957D-01
   116  1.1500000000000D+00 -4.8936776692743D-01  5.1234462124770D-01
   117  1.1600000000000D+00 -4.7311421165807D-01  4.6120722412925D-01
   118  1.1700000000000D+00 -4.5610392965865D-01  4.1092197229267D-01
   119  1.1800000000000D+00 -4.3844467116802D-01  3.6163494712219D-01
   120  1.1900000000000D+00 -4.2024279172165D-01  3.1348508851034D-01
   121  1.2000000000000D+00 -4.0160276190848D-01  2.6660365349216D-01
   122  1.2100000000000D+00 -3.8262670153134D-01  2.2111372171298D-01
   123  1.2200000000000D+00 -3.6341393932071D-01  1.7712974729485D-01
   124  1.2300000000000D+00 -3.4406060035754D-01  1.3475716035391D-01
   125  1.2400000000000D+00 -3.2465922289601D-01  9.4092020193141D-02
   126  1.2500000000000D+00 -3.0529840616328D-01  5.5220721942612D-02
   127  1.2600000000000D+00 -2.8606249037430D-01  1.8219757917995D-02
   128  1.2700000000000D+00 -2.6703127003029D-01 -1.6844465322511D-02
   129  1.2800000000000D+00 -2.4827974151733D-01 -4.9915753329695D-02
   130  1.2900000000000D+00 -2.2987788556114D-01 -8.0948193385025D-02
   131  1.3000000000000D+00 -2.1189048494266D-01 -1.0990616749399D-01
   132  1.3100000000000D+00 -1.9437697788358D-01 -1.3676430885098D-01
   133  1.3200000000000D+00 -1.7739134692757D-01 -1.6150740281581D-01
   134  1.3300000000000D+00 -1.6098204312199D-01 -1.8413023346777D-01
   135  1.3400000000000D+00 -1.4519194523739D-01 -2.0463737691993D-01
   136  1.3500000000000D+00 -1.3005835316606D-01 -2.2304294351561D-01
   137  1.3600000000000D+00 -1.1561301478958D-01 -2.3937027078851D-01
   138  1.3700000000000D+00 -1.0188218533078D-01 -2.5365156950934D-01
   139  1.3800000000000D+00 -8.8886717771161D-02 -2.6592752579608D-01
   140  1.3900000000000D+00 -7.6642183196520D-02 -2.7624686184140D-01
   141  1.4000000000000D+00 -6.5159019331570D-02 -2.8466585872571D-01
   142  1.4100000000000D+00 -5.4442705568768D-02 -2.9124784468931D-01
   143  1.4200000000000D+00 -4.4493962799148D-02 -2.9606265226835D-01
   144  1.4300000000000D+00 -3.5308975824249D-02 -2.9918604841808D-01
   145  1.4400000000000D+00 -2.6879636509278D-02 -3.0069914122707D-01
   146  1.4500000000000D+00 -1.9193805333310D-02 -3.0068776751584D-01
   147  1.4600000000000D+00 -1.2235589146500D-02 -2.9924186534435D-01
   148  1.4700000000000D+00 -5.9856328355448D-03 -2.9645483568945D-01
   149  1.4800000000000D+00 -4.2142246876587D-04 -2.9242289751203D-01
   150  1.4900000000000D+00  4.4824024011565D-03 -2.8724444051862D-01
   151  1.5000000000000D+00  8.7537297386424D-03 -2.8101937978388D-01
   152  1.5100000000000D+00  1.2422651684094D-02 -2.7384851644721D-01
   153  1.5200000000000D+00  1.5521139320923D-02 -2.6583290866013D-01
   154  1.5300000000000D+00  1.8082717751589D-02 -2.5707325649823D-01
   155  1.5400000000000D+00  2.0142144033700D-02 -2.4766930525670D-01
   156  1.5500000000000D+00  2.1735089773159D-02 -2.3771926990371D-01
   157  1.5600000000000D+00  2.2897831111673D-02 -2.2731928548572D-01
   158  1.5700000000000D+00  2.3666947403906D-02 -2.1656288520722D-01
   159  1.5800000000000D+00  2.4079031340103D-02 -2.0554051097066D-01
   160  1.5900000000000D+00  2.4170411493377D-02 -1.9433905748789D-01
   161  1.6000000000000D+00  2.3976889727102D-02 -1.8304145405596D-01
   162  1.6100000000000D+00  2.3533494345435D-02 -1.7172628495104D-01
   163  1.6200000000000D+00  2.2874250866650D-02 -1.6046745140611D-01
   164  1.6300000000000D+00  2.2031971293039D-02 -1.4933387612921D-01
   165  1.6400000000000D+00  2.1038063098386D-02 -1.3838925204015D-01
   166  1.6500000000000D+00  1.9922358807450D-02 -1.2769183619062D-01
   167  1.6600000000000D+00  1.8712966702290D-02 -1.1729428923919D-01
   168  1.6700000000000D+00  1.7436143489621D-02 -1.0724356136704D-01
   169  1.6800000000000D+00  1.6116188822982D-02 -9.7580823810678D-02
   170  1.6900000000000D+00  1.4775362384019D-02 -8.8341446646488D-02
   171  1.7000000000000D+00  1.3433822889424D-02 -7.9555021039617D-02
   172  1.7100000000000D+00  1.2109589463145D-02 -7.1245426091047D-02
   173  1.7200000000000D+00  1.0818524381658D-02 -6.3430937855112D-02
   174  1.7300000000000D+00  9.5743372142727D-03 -5.6124379887827D-02
   175  1.7400000000000D+00  8.3886092082023D-03 -4.9333312629129D-02
   176  1.7500000000000D+00  7.2708373658110D-03 -4.3060259935862D-02
   177  1.7600000000000D+00  6.2284971057420D-03 -3.7302970155154D-02
   178  1.7700000000000D+00  5.2671222720953D-03 -3.2054708846587D-02
   179  1.7800000000000D+00  4.3904015749367D-03 -2.7304580875470D-02
   180  1.7900000000000D+00  3.6002895233735D-03 -2.3037877790140D-02
   181  1.8000000000000D+00  2.8971311648516D-03 -1.9236448562930D-02
   182  1.8100000000000D+00  2.2797981318507D-03 -1.5879088741922D-02
   183  1.8200000000000D+00  1.7458354006594D-03 -1.2941946130809D-02
   184  1.8300000000000D+00  1.2916160592233D-03 -1.0398937909020D-02
   185  1.8400000000000D+00  9.1250321719632D-04 -8.2221766246142D-03
   186  1.8500000000000D+00  6.0301672914411D-04 -6.3824009234871D-03
   187  1.8600000000000D+00  3.5700311379341D-04 -4.8494069448779D-03
   188  1.8700000000000D+00  1.6780715630751D-04 -3.5924778520457D-03
   189  1.8800000000000D+00  2.8442826775380D-05 -2.5808061802694D-03
   190  1.8900000000000D+00 -6.8237462851724D-05 -1.7839072884320D-03
   191  1.9000000000000D+00 -1.2937759900602D-04 -1.1720190266827D-03
   192  1.9100000000000D+00 -1.6195793433188D-04 -7.1648471055797D-04
   193  1.9200000000000D+00 -1.7264184812447D-04 -3.9011758871859D-04
   194  1.9300000000000D+00 -1.6763195424218D-04 -1.6754001343171D-04
   195  1.9400000000000D+00 -1.5253415237770D-04 -2.5501264766966D-05
   196  1.9500000000000D+00 -1.3231330955865D-04  5.6976779948758D-05
   197  1.9600000000000D+00 -1.1087604196769D-04  9.7797832474398D-05
   198  1.9700000000000D+00 -9.0864729154793D-05  1.1137693596789D-04
   199  1.9800000000000D+00 -7.4815634489299D-05  1.1065576532606D-04
   200  1.9900000000000D+00 -6.5690927819738D-05  1.0801377193089D-04
   201  2.0000000000000D+00 -6.5601480574761D-05  1.1287623281565D-04
   202  2.0100000000000D+00 -6.2705012313603D-05  1.0887963408817D-04
   203  2.0200000000000D+00 -4.5637241585034D-05  7.9124438027715D-05
   204  2.0300000000000D+00 -1.8931216513918D-05  3.2721483482976D-05
   205  2.0400000000000D+00  2.1528815202941D-06 -3.7356512632056D-06
   206  2.0500000000000D+00  6.0821136315672D-06 -1.0543857514518D-05
   207  2.0600000000000D+00  1.5917925771697D-06 -2.7570012445739D-06
   208  2.0700000000000D+00 -1.2219211288501D-06  2.1353678994575D-06
   209  2.0800000000000D+00 -1.0335641800577D-06  1.8068658002906D-06
   210  2.0900000000000D+00  6.3609016406022D-08 -1.1040503832897D-07
   211  2.1000000000000D+00  1.6598386851823D-07 -2.8809524814491D-07
   212  2.1100000000000D+00  4.5887584448723D-08 -7.9646264101101D-08
   213  2.1200000000000D+00  0.0000000000000D+00  0.0000000000000D+00
   214  2.1300000000000D+00  0.0000000000000D+00  0.0000000000000D+00
   215  2.1400000000000D+00  0.0000000000000D+00  0.0000000000000D+00
   216  2.1500000000000D+00  0.0000000000000D+00  0.0000000000000D+00
   217  2.1600000000000D+00  0.0000000000000D+00  0.0000000000000D+00
   218  2.1700000000000D+00  0.0000000000000D+00  0.0000000000000D+00
   219  2.1800000000000D+00  0.0000000000000D+00  0.0000000000000D+00
   220  2.1900000000000D+00  0.0000000000000D+00  0.0000000000000D+00
   221  2.2000000000000D+00  0.0000000000000D+00  0.0000000000000D+00
   222  2.2100000000000D+00  0.0000000000000D+00  0.0000000000000D+00
   223  2.2200000000000D+00  0.0000000000000D+00  0.0000000000000D+00
   224  2.2300000000000D+00  0.0000000000000D+00  0.0000000000000D+00
   225  2.2400000000000D+00  0.0000000000000D+00  0.0000000000000D+00
   226  2.2500000000000D+00  0.0000000000000D+00  0.0000000000000D+00
   227  2.2600000000000D+00  0.0000000000000D+00  0.0000000000000D+00
   228  2.2700000000000D+00  0.0000000000000D+00  0.0000000000000D+00
   229  2.2800000000000D+00  0.0000000000000D+00  0.0000000000000D+00
   230  2.2900000000000D+00  0.0000000000000D+00  0.0000000000000D+00
   231  2.3000000000000D+00  0.0000000000000D+00  0.0000000000000D+00
   232  2.3100000000000D+00  0.0000000000000D+00  0.0000000000000D+00
   233  2.3200000000000D+00  0.0000000000000D+00  0.0000000000000D+00
   234  2.3300000000000D+00  0.0000000000000D+00  0.0000000000000D+00
   235  2.3400000000000D+00  0.0000000000000D+00  0.0000000000000D+00
   236  2.3500000000000D+00  0.0000000000000D+00  0.0000000000000D+00
   237  2.3600000000000D+00  0.0000000000000D+00  0.0000000000000D+00
   238  2.3700000000000D+00  0.0000000000000D+00  0.0000000000000D+00
   239  2.3800000000000D+00  0.0000000000000D+00  0.0000000000000D+00
   240  2.3900000000000D+00  0.0000000000000D+00  0.0000000000000D+00
   241  2.4000000000000D+00  0.0000000000000D+00  0.0000000000000D+00
   242  2.4100000000000D+00  0.0000000000000D+00  0.0000000000000D+00
   243  2.4200000000000D+00  0.0000000000000D+00  0.0000000000000D+00
   244  2.4300000000000D+00  0.0000000000000D+00  0.0000000000000D+00
   245  2.4400000000000D+00  0.0000000000000D+00  0.0000000000000D+00
   246  2.4500000000000D+00  0.0000000000000D+00  0.0000000000000D+00
   247  2.4600000000000D+00  0.0000000000000D+00  0.0000000000000D+00
   248  2.4700000000000D+00  0.0000000000000D+00  0.0000000000000D+00
   249  2.4800000000000D+00  0.0000000000000D+00  0.0000000000000D+00
   250  2.4900000000000D+00  0.0000000000000D+00  0.0000000000000D+00
   251  2.5000000000000D+00  0.0000000000000D+00  0.0000000000000D+00
   252  2.5100000000000D+00  0.0000000000000D+00  0.0000000000000D+00
   253  2.5200000000000D+00  0.0000000000000D+00  0.0000000000000D+00
   254  2.5300000000000D+00  0.0000000000000D+00  0.0000000000000D+00
   255  2.5400000000000D+00  0.0000000000000D+00  0.0000000000000D+00
   256  2.5500000000000D+00  0.0000000000000D+00  0.0000000000000D+00
   257  2.5600000000000D+00  0.0000000000000D+00  0.0000000000000D+00
   258  2.5700000000000D+00  0.0000000000000D+00  0.0000000000000D+00
   259  2.5800000000000D+00  0.0000000000000D+00  0.0000000000000D+00
   260  2.5900000000000D+00  0.0000000000000D+00  0.0000000000000D+00
   261  2.6000000000000D+00  0.0000000000000D+00  0.0000000000000D+00
   262  2.6100000000000D+00  0.0000000000000D+00  0.0000000000000D+00
   263  2.6200000000000D+00  0.0000000000000D+00  0.0000000000000D+00
   264  2.6300000000000D+00  0.0000000000000D+00  0.0000000000000D+00
   265  2.6400000000000D+00  0.0000000000000D+00  0.0000000000000D+00
   266  2.6500000000000D+00  0.0000000000000D+00  0.0000000000000D+00
   267  2.6600000000000D+00  0.0000000000000D+00  0.0000000000000D+00
   268  2.6700000000000D+00  0.0000000000000D+00  0.0000000000000D+00
   269  2.6800000000000D+00  0.0000000000000D+00  0.0000000000000D+00
   270  2.6900000000000D+00  0.0000000000000D+00  0.0000000000000D+00
   271  2.7000000000000D+00  0.0000000000000D+00  0.0000000000000D+00
   272  2.7100000000000D+00  0.0000000000000D+00  0.0000000000000D+00
   273  2.7200000000000D+00  0.0000000000000D+00  0.0000000000000D+00
   274  2.7300000000000D+00  0.0000000000000D+00  0.0000000000000D+00
   275  2.7400000000000D+00  0.0000000000000D+00  0.0000000000000D+00
   276  2.7500000000000D+00  0.0000000000000D+00  0.0000000000000D+00
   277  2.7600000000000D+00  0.0000000000000D+00  0.0000000000000D+00
   278  2.7700000000000D+00  0.0000000000000D+00  0.0000000000000D+00
   279  2.7800000000000D+00  0.0000000000000D+00  0.0000000000000D+00
   280  2.7900000000000D+00  0.0000000000000D+00  0.0000000000000D+00
   281  2.8000000000000D+00  0.0000000000000D+00  0.0000000000000D+00
   282  2.8100000000000D+00  0.0000000000000D+00  0.0000000000000D+00
   283  2.8200000000000D+00  0.0000000000000D+00  0.0000000000000D+00
   284  2.8300000000000D+00  0.0000000000000D+00  0.0000000000000D+00
   285  2.8400000000000D+00  0.0000000000000D+00  0.0000000000000D+00
   286  2.8500000000000D+00  0.0000000000000D+00  0.0000000000000D+00
   287  2.8600000000000D+00  0.0000000000000D+00  0.0000000000000D+00
   288  2.8700000000000D+00  0.0000000000000D+00  0.0000000000000D+00
   289  2.8800000000000D+00  0.0000000000000D+00  0.0000000000000D+00
   290  2.8900000000000D+00  0.0000000000000D+00  0.0000000000000D+00
   291  2.9000000000000D+00  0.0000000000000D+00  0.0000000000000D+00
   292  2.9100000000000D+00  0.0000000000000D+00  0.0000000000000D+00
   293  2.9200000000000D+00  0.0000000000000D+00  0.0000000000000D+00
   294  2.9300000000000D+00  0.0000000000000D+00  0.0000000000000D+00
   295  2.9400000000000D+00  0.0000000000000D+00  0.0000000000000D+00
   296  2.9500000000000D+00  0.0000000000000D+00  0.0000000000000D+00
   297  2.9600000000000D+00  0.0000000000000D+00  0.0000000000000D+00
   298  2.9700000000000D+00  0.0000000000000D+00  0.0000000000000D+00
   299  2.9800000000000D+00  0.0000000000000D+00  0.0000000000000D+00
   300  2.9900000000000D+00  0.0000000000000D+00  0.0000000000000D+00
   301  3.0000000000000D+00  0.0000000000000D+00  0.0000000000000D+00
   302  3.0100000000000D+00  0.0000000000000D+00  0.0000000000000D+00
   303  3.0200000000000D+00  0.0000000000000D+00  0.0000000000000D+00
   304  3.0300000000000D+00  0.0000000000000D+00  0.0000000000000D+00
   305  3.0400000000000D+00  0.0000000000000D+00  0.0000000000000D+00
   306  3.0500000000000D+00  0.0000000000000D+00  0.0000000000000D+00
   307  3.0600000000000D+00  0.0000000000000D+00  0.0000000000000D+00
   308  3.0700000000000D+00  0.0000000000000D+00  0.0000000000000D+00
   309  3.0800000000000D+00  0.0000000000000D+00  0.0000000000000D+00
   310  3.0900000000000D+00  0.0000000000000D+00  0.0000000000000D+00
   311  3.1000000000000D+00  0.0000000000000D+00  0.0000000000000D+00
   312  3.1100000000000D+00  0.0000000000000D+00  0.0000000000000D+00
   313  3.1200000000000D+00  0.0000000000000D+00  0.0000000000000D+00
   314  3.1300000000000D+00  0.0000000000000D+00  0.0000000000000D+00
   315  3.1400000000000D+00  0.0000000000000D+00  0.0000000000000D+00
   316  3.1500000000000D+00  0.0000000000000D+00  0.0000000000000D+00
   317  3.1600000000000D+00  0.0000000000000D+00  0.0000000000000D+00
   318  3.1700000000000D+00  0.0000000000000D+00  0.0000000000000D+00
   319  3.1800000000000D+00  0.0000000000000D+00  0.0000000000000D+00
   320  3.1900000000000D+00  0.0000000000000D+00  0.0000000000000D+00
   321  3.2000000000000D+00  0.0000000000000D+00  0.0000000000000D+00
   322  3.2100000000000D+00  0.0000000000000D+00  0.0000000000000D+00
   323  3.2200000000000D+00  0.0000000000000D+00  0.0000000000000D+00
   324  3.2300000000000D+00  0.0000000000000D+00  0.0000000000000D+00
   325  3.2400000000000D+00  0.0000000000000D+00  0.0000000000000D+00
   326  3.2500000000000D+00  0.0000000000000D+00  0.0000000000000D+00
   327  3.2600000000000D+00  0.0000000000000D+00  0.0000000000000D+00
   328  3.2700000000000D+00  0.0000000000000D+00  0.0000000000000D+00
   329  3.2800000000000D+00  0.0000000000000D+00  0.0000000000000D+00
   330  3.2900000000000D+00  0.0000000000000D+00  0.0000000000000D+00
   331  3.3000000000000D+00  0.0000000000000D+00  0.0000000000000D+00
   332  3.3100000000000D+00  0.0000000000000D+00  0.0000000000000D+00
   333  3.3200000000000D+00  0.0000000000000D+00  0.0000000000000D+00
   334  3.3300000000000D+00  0.0000000000000D+00  0.0000000000000D+00
   335  3.3400000000000D+00  0.0000000000000D+00  0.0000000000000D+00
   336  3.3500000000000D+00  0.0000000000000D+00  0.0000000000000D+00
   337  3.3600000000000D+00  0.0000000000000D+00  0.0000000000000D+00
   338  3.3700000000000D+00  0.0000000000000D+00  0.0000000000000D+00
   339  3.3800000000000D+00  0.0000000000000D+00  0.0000000000000D+00
   340  3.3900000000000D+00  0.0000000000000D+00  0.0000000000000D+00
   341  3.4000000000000D+00  0.0000000000000D+00  0.0000000000000D+00
   342  3.4100000000000D+00  0.0000000000000D+00  0.0000000000000D+00
   343  3.4200000000000D+00  0.0000000000000D+00  0.0000000000000D+00
   344  3.4300000000000D+00  0.0000000000000D+00  0.0000000000000D+00
   345  3.4400000000000D+00  0.0000000000000D+00  0.0000000000000D+00
   346  3.4500000000000D+00  0.0000000000000D+00  0.0000000000000D+00
   347  3.4600000000000D+00  0.0000000000000D+00  0.0000000000000D+00
   348  3.4700000000000D+00  0.0000000000000D+00  0.0000000000000D+00
   349  3.4800000000000D+00  0.0000000000000D+00  0.0000000000000D+00
   350  3.4900000000000D+00  0.0000000000000D+00  0.0000000000000D+00
   351  3.5000000000000D+00  0.0000000000000D+00  0.0000000000000D+00
   352  3.5100000000000D+00  0.0000000000000D+00  0.0000000000000D+00
   353  3.5200000000000D+00  0.0000000000000D+00  0.0000000000000D+00
   354  3.5300000000000D+00  0.0000000000000D+00  0.0000000000000D+00
   355  3.5400000000000D+00  0.0000000000000D+00  0.0000000000000D+00
   356  3.5500000000000D+00  0.0000000000000D+00  0.0000000000000D+00
   357  3.5600000000000D+00  0.0000000000000D+00  0.0000000000000D+00
   358  3.5700000000000D+00  0.0000000000000D+00  0.0000000000000D+00
   359  3.5800000000000D+00  0.0000000000000D+00  0.0000000000000D+00
   360  3.5900000000000D+00  0.0000000000000D+00  0.0000000000000D+00
   361  3.6000000000000D+00  0.0000000000000D+00  0.0000000000000D+00
   362  3.6100000000000D+00  0.0000000000000D+00  0.0000000000000D+00
   363  3.6200000000000D+00  0.0000000000000D+00  0.0000000000000D+00
   364  3.6300000000000D+00  0.0000000000000D+00  0.0000000000000D+00
   365  3.6400000000000D+00  0.0000000000000D+00  0.0000000000000D+00
   366  3.6500000000000D+00  0.0000000000000D+00  0.0000000000000D+00
   367  3.6600000000000D+00  0.0000000000000D+00  0.0000000000000D+00
   368  3.6700000000000D+00  0.0000000000000D+00  0.0000000000000D+00
   369  3.6800000000000D+00  0.0000000000000D+00  0.0000000000000D+00
   370  3.6900000000000D+00  0.0000000000000D+00  0.0000000000000D+00
   371  3.7000000000000D+00  0.0000000000000D+00  0.0000000000000D+00
   372  3.7100000000000D+00  0.0000000000000D+00  0.0000000000000D+00
   373  3.7200000000000D+00  0.0000000000000D+00  0.0000000000000D+00
   374  3.7300000000000D+00  0.0000000000000D+00  0.0000000000000D+00
   375  3.7400000000000D+00  0.0000000000000D+00  0.0000000000000D+00
   376  3.7500000000000D+00  0.0000000000000D+00  0.0000000000000D+00
   377  3.7600000000000D+00  0.0000000000000D+00  0.0000000000000D+00
   378  3.7700000000000D+00  0.0000000000000D+00  0.0000000000000D+00
   379  3.7800000000000D+00  0.0000000000000D+00  0.0000000000000D+00
   380  3.7900000000000D+00  0.0000000000000D+00  0.0000000000000D+00
   381  3.8000000000000D+00  0.0000000000000D+00  0.0000000000000D+00
   382  3.8100000000000D+00  0.0000000000000D+00  0.0000000000000D+00
   383  3.8200000000000D+00  0.0000000000000D+00  0.0000000000000D+00
   384  3.8300000000000D+00  0.0000000000000D+00  0.0000000000000D+00
   385  3.8400000000000D+00  0.0000000000000D+00  0.0000000000000D+00
   386  3.8500000000000D+00  0.0000000000000D+00  0.0000000000000D+00
   387  3.8600000000000D+00  0.0000000000000D+00  0.0000000000000D+00
   388  3.8700000000000D+00  0.0000000000000D+00  0.0000000000000D+00
   389  3.8800000000000D+00  0.0000000000000D+00  0.0000000000000D+00
   390  3.8900000000000D+00  0.0000000000000D+00  0.0000000000000D+00
   391  3.9000000000000D+00  0.0000000000000D+00  0.0000000000000D+00
   392  3.9100000000000D+00  0.0000000000000D+00  0.0000000000000D+00
   393  3.9200000000000D+00  0.0000000000000D+00  0.0000000000000D+00
   394  3.9300000000000D+00  0.0000000000000D+00  0.0000000000000D+00
   395  3.9400000000000D+00  0.0000000000000D+00  0.0000000000000D+00
   396  3.9500000000000D+00  0.0000000000000D+00  0.0000000000000D+00
   397  3.9600000000000D+00  0.0000000000000D+00  0.0000000000000D+00
   398  3.9700000000000D+00  0.0000000000000D+00  0.0000000000000D+00
   399  3.9800000000000D+00  0.0000000000000D+00  0.0000000000000D+00
   400  3.9900000000000D+00  0.0000000000000D+00  0.0000000000000D+00
   401  4.0000000000000D+00  0.0000000000000D+00  0.0000000000000D+00
   402  4.0100000000000D+00  0.0000000000000D+00  0.0000000000000D+00
   403  4.0200000000000D+00  0.0000000000000D+00  0.0000000000000D+00
   404  4.0300000000000D+00  0.0000000000000D+00  0.0000000000000D+00
   405  4.0400000000000D+00  0.0000000000000D+00  0.0000000000000D+00
   406  4.0500000000000D+00  0.0000000000000D+00  0.0000000000000D+00
   407  4.0600000000000D+00  0.0000000000000D+00  0.0000000000000D+00
   408  4.0700000000000D+00  0.0000000000000D+00  0.0000000000000D+00
   409  4.0800000000000D+00  0.0000000000000D+00  0.0000000000000D+00
   410  4.0900000000000D+00  0.0000000000000D+00  0.0000000000000D+00
   411  4.1000000000000D+00  0.0000000000000D+00  0.0000000000000D+00
   412  4.1100000000000D+00  0.0000000000000D+00  0.0000000000000D+00
   413  4.1200000000000D+00  0.0000000000000D+00  0.0000000000000D+00
   414  4.1300000000000D+00  0.0000000000000D+00  0.0000000000000D+00
   415  4.1400000000000D+00  0.0000000000000D+00  0.0000000000000D+00
   416  4.1500000000000D+00  0.0000000000000D+00  0.0000000000000D+00
   417  4.1600000000000D+00  0.0000000000000D+00  0.0000000000000D+00
   418  4.1700000000000D+00  0.0000000000000D+00  0.0000000000000D+00
   419  4.1800000000000D+00  0.0000000000000D+00  0.0000000000000D+00
   420  4.1900000000000D+00  0.0000000000000D+00  0.0000000000000D+00
   421  4.2000000000000D+00  0.0000000000000D+00  0.0000000000000D+00
   422  4.2100000000000D+00  0.0000000000000D+00  0.0000000000000D+00
   423  4.2200000000000D+00  0.0000000000000D+00  0.0000000000000D+00