Hg    ONCVPSP-3.3.1  r_core=   2.34483   2.34483   2.18287   3.27466
     80.0000     20.0000      210904    zatom,zion,pspd
     8      11   3     4   600     0    pspcod,pspxc,lmax,lloc,mmax,r2well
  5.99000000  0.00000000  0.00000000    rchrg fchrg qchrg
     2     2     2     2     0    nproj
     1     1           extension_switch
   0                         4.5781686526774D+00  6.5835082316291D-01
     1  0.0000000000000D+00  8.1101791948868D-13 -2.0736259931375D-11
     2  1.0000000000000D-02  5.9230147229854D-02  5.0170876406668D-03
     3  2.0000000000000D-02  1.1835892145540D-01  1.0041852335355D-02
     4  3.0000000000000D-02  1.7728513344372D-01  1.5082052591990D-02
     5  4.0000000000000D-02  2.3590796124510D-01  2.0145608997419D-02
     6  5.0000000000000D-02  2.9412713318573D-01  2.5240683189946D-02
     7  6.0000000000000D-02  3.5184311008088D-01  3.0375754366219D-02
     8  7.0000000000000D-02  4.0895726640805D-01  3.5559692524980D-02
     9  8.0000000000000D-02  4.6537207017833D-01  4.0801827670942D-02
    10  9.0000000000000D-02  5.2099126124351D-01  4.6112014227738D-02
    11  1.0000000000000D-01  5.7572002777519D-01  5.1500689939484D-02
    12  1.1000000000000D-01  6.2946518065109D-01  5.6978928575741D-02
    13  1.2000000000000D-01  6.8213532548205D-01  6.2558485794392D-02
    14  1.3000000000000D-01  7.3364103201228D-01  6.8251837561006D-02
    15  1.4000000000000D-01  7.8389500062354D-01  7.4072210571347D-02
    16  1.5000000000000D-01  8.3281222567277D-01  8.0033604175549D-02
    17  1.6000000000000D-01  8.8031015539124D-01  8.6150803357947D-02
    18  1.7000000000000D-01  9.2630884807199D-01  9.2439382385129D-02
    19  1.8000000000000D-01  9.7073112427129D-01  9.8915698796352D-02
    20  1.9000000000000D-01  1.0135027147488D+00  1.0559687747460D-01
    21  2.0000000000000D-01  1.0545524038706D+00  1.1250078460289D-01
    22  2.1000000000000D-01  1.0938121681984D+00  1.1964599137868D-01
    23  2.2000000000000D-01  1.1312173099897D+00  1.2705172742887D-01
    24  2.3000000000000D-01  1.1667065853314D+00  1.3473782393895D-01
    25  2.4000000000000D-01  1.2002223266330D+00  1.4272464658090D-01
    26  2.5000000000000D-01  1.2317105592054D+00  1.5103301839690D-01
    27  2.6000000000000D-01  1.2611211116540D+00  1.5968413286722D-01
    28  2.7000000000000D-01  1.2884077198158D+00  1.6869945746197D-01
    29  2.8000000000000D-01  1.3135281239770D+00  1.7810062804699D-01
    30  2.9000000000000D-01  1.3364441591069D+00  1.8790933458279D-01
    31  3.0000000000000D-01  1.3571218378544D+00  1.9814719862307D-01
    32  3.1000000000000D-01  1.3755314260526D+00  2.0883564318437D-01
    33  3.2000000000000D-01  1.3916475104909D+00  2.1999575562082D-01
    34  3.3000000000000D-01  1.4054490587148D+00  2.3164814419831D-01
    35  3.4000000000000D-01  1.4169194706270D+00  2.4381278911794D-01
    36  3.5000000000000D-01  1.4260466216716D+00  2.5650888879244D-01
    37  3.6000000000000D-01  1.4328228973913D+00  2.6975470222715D-01
    38  3.7000000000000D-01  1.4372452191650D+00  2.8356738840238D-01
    39  3.8000000000000D-01  1.4393150609396D+00  2.9796284359344D-01
    40  3.9000000000000D-01  1.4390384567889D+00  3.1295553759992D-01
    41  4.0000000000000D-01  1.4364259991443D+00  3.2855834988547D-01
    42  4.1000000000000D-01  1.4314928275610D+00  3.4478240665389D-01
    43  4.2000000000000D-01  1.4242586078988D+00  3.6163691990621D-01
    44  4.3000000000000D-01  1.4147475018159D+00  3.7912902953633D-01
    45  4.4000000000000D-01  1.4029881264946D+00  3.9726364953022D-01
    46  4.5000000000000D-01  1.3890135045375D+00  4.1604331933432D-01
    47  4.6000000000000D-01  1.3728610039959D+00  4.3546806145397D-01
    48  4.7000000000000D-01  1.3545722685138D+00  4.5553524633139D-01
    49  4.8000000000000D-01  1.3341931375964D+00  4.7623946553475D-01
    50  4.9000000000000D-01  1.3117735570354D+00  4.9757241426653D-01
    51  5.0000000000000D-01  1.2873674795513D+00  5.1952278416914D-01
    52  5.1000000000000D-01  1.2610327557366D+00  5.4207616736940D-01
    53  5.2000000000000D-01  1.2328310154151D+00  5.6521497266190D-01
    54  5.3000000000000D-01  1.2028275395572D+00  5.8891835468258D-01
    55  5.4000000000000D-01  1.1710911229211D+00  6.1316215687071D-01
    56  5.5000000000000D-01  1.1376939276201D+00  6.3791886895795D-01
    57  5.6000000000000D-01  1.1027113278443D+00  6.6315759965897D-01
    58  5.7000000000000D-01  1.0662217459948D+00  6.8884406516868D-01
    59  5.8000000000000D-01  1.0283064805204D+00  7.1494059399724D-01
    60  5.9000000000000D-01  9.8904952577384D-01  7.4140614859568D-01
    61  6.0000000000000D-01  9.4853738423880D-01  7.6819636414292D-01
    62  6.1000000000000D-01  9.0685887150348D-01  7.9526360477919D-01
    63  6.2000000000000D-01  8.6410491439106D-01  8.2255703748210D-01
    64  6.3000000000000D-01  8.2036834268289D-01  8.5002272369029D-01
    65  6.4000000000000D-01  7.7574367489996D-01  8.7760372868571D-01
    66  6.5000000000000D-01  7.3032689863557D-01  9.0524024865057D-01
    67  6.6000000000000D-01  6.8421524595864D-01  9.3286975521820D-01
    68  6.7000000000000D-01  6.3750696443279D-01  9.6042715724015D-01
    69  6.8000000000000D-01  5.9030108432046D-01  9.8784497939417D-01
    70  6.9000000000000D-01  5.4269718256475D-01  1.0150535571609D+00
    71  7.0000000000000D-01  4.9479514416257D-01  1.0419812476014D+00
    72  7.1000000000000D-01  4.4669492156330D-01  1.0685546552720D+00
    73  7.2000000000000D-01  3.9849629274451D-01  1.0946988725215D+00
    74  7.3000000000000D-01  3.5029861863308D-01  1.1203377333255D+00
    75  7.4000000000000D-01  3.0220060055395D-01  1.1453940797245D+00
    76  7.5000000000000D-01  2.5430003840059D-01  1.1697900398504D+00
    77  7.6000000000000D-01  2.0669359023149D-01  1.1934473164465D+00
    78  7.7000000000000D-01  1.5947653400383D-01  1.2162874847102D+00
    79  7.8000000000000D-01  1.1274253216073D-01  1.2382322982193D+00
    80  7.9000000000000D-01  6.6583399790695D-02  1.2592040016382D+00
    81  8.0000000000000D-01  2.1088877077631D-02  1.2791256488417D+00
    82  8.1000000000000D-01 -2.3653593243253D-02  1.2979214250427D+00
    83  8.2000000000000D-01 -6.7559082713936D-02  1.3155169714637D+00
    84  8.3000000000000D-01 -1.1054538756542D-01  1.3318397110565D+00
    85  8.4000000000000D-01 -1.5253323202309D-01  1.3468191737396D+00
    86  8.5000000000000D-01 -1.9344646383007D-01  1.3603873196034D+00
    87  8.6000000000000D-01 -2.3321224132998D-01  1.3724788585144D+00
    88  8.7000000000000D-01 -2.7176121147036D-01  1.3830315645448D+00
    89  8.8000000000000D-01 -3.0902767811080D-01  1.3919865836518D+00
    90  8.9000000000000D-01 -3.4494976004497D-01  1.3992887330419D+00
    91  9.0000000000000D-01 -3.7946953817413D-01  1.4048867906701D+00
    92  9.1000000000000D-01 -4.1253319130012D-01  1.4087337733507D+00
    93  9.2000000000000D-01 -4.4409112003938D-01  1.4107872019883D+00
    94  9.3000000000000D-01 -4.7409805839508D-01  1.4110093524798D+00
    95  9.4000000000000D-01 -5.0251317256241D-01  1.4093674908868D+00
    96  9.5000000000000D-01 -5.2930014658251D-01  1.4058340915339D+00
    97  9.6000000000000D-01 -5.5442725450242D-01  1.4003870367553D+00
    98  9.7000000000000D-01 -5.7786741874304D-01  1.3930097970787D+00
    99  9.8000000000000D-01 -5.9959825442224D-01  1.3836915907203D+00
   100  9.9000000000000D-01 -6.1960209942907D-01  1.3724275213433D+00
   101  1.0000000000000D+00 -6.3786603009115D-01  1.3592186931270D+00
   102  1.0100000000000D+00 -6.5438186233023D-01  1.3440723022880D+00
   103  1.0200000000000D+00 -6.6914613824961D-01  1.3270017042984D+00
   104  1.0300000000000D+00 -6.8216009814935D-01  1.3080264561503D+00
   105  1.0400000000000D+00 -6.9342963801684D-01  1.2871723331262D+00
   106  1.0500000000000D+00 -7.0296525259422D-01  1.2644713196528D+00
   107  1.0600000000000D+00 -7.1078196417204D-01  1.2399615739223D+00
   108  1.0700000000000D+00 -7.1689923731572D-01  1.2136873660952D+00
   109  1.0800000000000D+00 -7.2134087977970D-01  1.1856989900132D+00
   110  1.0900000000000D+00 -7.2413492991514D-01  1.1560526484702D+00
   111  1.1000000000000D+00 -7.2531353093028D-01  1.1248103122230D+00
   112  1.1100000000000D+00 -7.2491279240247D-01  1.0920395530194D+00
   113  1.1200000000000D+00 -7.2297263949904D-01  1.0578133510705D+00
   114  1.1300000000000D+00 -7.1953665040137D-01  1.0222098774940D+00
   115  1.1400000000000D+00 -7.1465188247614D-01  9.8531225238221D-01
   116  1.1500000000000D+00 -7.0836868777017D-01  9.4720827924345D-01
   117  1.1600000000000D+00 -7.0074051845439D-01  9.0799015669673D-01
   118  1.1700000000000D+00 -6.9182372287247D-01  8.6775416839075D-01
   119  1.1800000000000D+00 -6.8167733288858D-01  8.2660035223283D-01
   120  1.1900000000000D+00 -6.7036284324800D-01  7.8463215007164D-01
   121  1.2000000000000D+00 -6.5794398370800D-01  7.4195603911627D-01
   122  1.2100000000000D+00 -6.4448648471038D-01  6.9868114642540D-01
   123  1.2200000000000D+00 -6.3005783738813D-01  6.5491884787366D-01
   124  1.2300000000000D+00 -6.1472704872017D-01  6.1078235307994D-01
   125  1.2400000000000D+00 -5.9856439266182D-01  5.6638627784805D-01
   126  1.2500000000000D+00 -5.8164115808483D-01  5.2184620570611D-01
   127  1.2600000000000D+00 -5.6402939437138D-01  4.7727824017680D-01
   128  1.2700000000000D+00 -5.4580165550915D-01  4.3279854946343D-01
   129  1.2800000000000D+00 -5.2703074352793D-01  3.8852290523730D-01
   130  1.2900000000000D+00 -5.0778945212444D-01  3.4456621724371D-01
   131  1.3000000000000D+00 -4.8815031130235D-01  3.0104206545288D-01
   132  1.3100000000000D+00 -4.6818533384313D-01  2.5806223146293D-01
   133  1.3200000000000D+00 -4.4796576442506D-01  2.1573623088479D-01
   134  1.3300000000000D+00 -4.2756183215691D-01  1.7417084837915D-01
   135  1.3400000000000D+00 -4.0704250729508D-01  1.3346967701146D-01
   136  1.3500000000000D+00 -3.8647526289168D-01  9.3732663576655D-02
   137  1.3600000000000D+00 -3.6592584204514D-01  5.5055661415344D-02
   138  1.3700000000000D+00 -3.4545803146560D-01  1.7529992312929D-02
   139  1.3800000000000D+00 -3.2513344197378D-01 -1.8757981079080D-02
   140  1.3900000000000D+00 -3.0501129650730D-01 -5.3727270957270D-02
   141  1.4000000000000D+00 -2.8514822626224D-01 -8.7302666759086D-02
   142  1.4100000000000D+00 -2.6559807540088D-01 -1.1941512315888D-01
   143  1.4200000000000D+00 -2.4641171485953D-01 -1.5000213239548D-01
   144  1.4300000000000D+00 -2.2763686567341D-01 -1.7900807988122D-01
   145  1.4400000000000D+00 -2.0931793213167D-01 -2.0638458226779D-01
   146  1.4500000000000D+00 -1.9149584521667D-01 -2.3209080684154D-01
   147  1.4600000000000D+00 -1.7420791645132D-01 -2.5609377181798D-01
   148  1.4700000000000D+00 -1.5748770251534D-01 -2.7836862660516D-01
   149  1.4800000000000D+00 -1.4136488072801D-01 -2.9889891166192D-01
   150  1.4900000000000D+00 -1.2586513551870D-01 -3.1767679753841D-01
   151  1.5000000000000D+00 -1.1101005339310D-01 -3.3470331154104D-01
   152  1.5100000000000D+00 -9.6817039465201D-02 -3.4998850714037D-01
   153  1.5200000000000D+00 -8.3299222231868D-02 -3.6355169041155D-01
   154  1.5300000000000D+00 -7.0465477404855D-02 -3.7542126178218D-01
   155  1.5400000000000D+00 -5.8320096929913D-02 -3.8563575999047D-01
   156  1.5500000000000D+00 -4.6862956936642D-02 -3.9424325745326D-01
   157  1.5600000000000D+00 -3.6090418342261D-02 -4.0129826349923D-01
   158  1.5700000000000D+00 -2.5996035585799D-02 -4.0685941672531D-01
   159  1.5800000000000D+00 -1.6571549043019D-02 -4.1098633272304D-01
   160  1.5900000000000D+00 -7.8071159223337D-03 -4.1373903286994D-01
   161  1.6000000000000D+00  3.0885150455274D-04 -4.1517875358888D-01
   162  1.6100000000000D+00  7.7894859599893D-03 -4.1536749408319D-01
   163  1.6200000000000D+00  1.4649380279794D-02 -4.1436796233545D-01
   164  1.6300000000000D+00  2.0904476531846D-02 -4.1224343155487D-01
   165  1.6400000000000D+00  2.6571960994853D-02 -4.0905761451956D-01
   166  1.6500000000000D+00  3.1670156916577D-02 -4.0487452797988D-01
   167  1.6600000000000D+00  3.6218415953997D-02 -3.9975834992497D-01
   168  1.6700000000000D+00  4.0237009006029D-02 -3.9377327163954D-01
   169  1.6800000000000D+00  4.3747016730042D-02 -3.8698334534097D-01
   170  1.6900000000000D+00  4.6770220933094D-02 -3.7945233071253D-01
   171  1.7000000000000D+00  4.9328996957346D-02 -3.7124354062910D-01
   172  1.7100000000000D+00  5.1446205256537D-02 -3.6241967998516D-01
   173  1.7200000000000D+00  5.3145083939267D-02 -3.5304268318570D-01
   174  1.7300000000000D+00  5.4449147185868D-02 -3.4317356526398D-01
   175  1.7400000000000D+00  5.5382086065245D-02 -3.3287227577859D-01
   176  1.7500000000000D+00  5.5967666957384D-02 -3.2219753997595D-01
   177  1.7600000000000D+00  5.6229632921056D-02 -3.1120670412839D-01
   178  1.7700000000000D+00  5.6191612745617D-02 -2.9995559942679D-01
   179  1.7800000000000D+00  5.5877032648065D-02 -2.8849840883168D-01
   180  1.7900000000000D+00  5.5309030160875D-02 -2.7688753499504D-01
   181  1.8000000000000D+00  5.4510372249642D-02 -2.6517347587729D-01
   182  1.8100000000000D+00  5.3503378498195D-02 -2.5340471029901D-01
   183  1.8200000000000D+00  5.2309848643864D-02 -2.4162759137178D-01
   184  1.8300000000000D+00  5.0950994930733D-02 -2.2988624901482D-01
   185  1.8400000000000D+00  4.9447379350850D-02 -2.1822250188427D-01
   186  1.8500000000000D+00  4.7818856037847D-02 -2.0667577946479D-01
   187  1.8600000000000D+00  4.6084518961504D-02 -1.9528305475508D-01
   188  1.8700000000000D+00  4.4262654815417D-02 -1.8407878736251D-01
   189  1.8800000000000D+00  4.2370701584180D-02 -1.7309487830879D-01
   190  1.8900000000000D+00  4.0425212223915D-02 -1.6236063518937D-01
   191  1.9000000000000D+00  3.8441824268354D-02 -1.5190274983199D-01
   192  1.9100000000000D+00  3.6435234492756D-02 -1.4174528630971D-01
   193  1.9200000000000D+00  3.4419179424103D-02 -1.3190968141248D-01
   194  1.9300000000000D+00  3.2406420990888D-02 -1.2241475582815D-01
   195  1.9400000000000D+00  3.0408737638017D-02 -1.1327673695671D-01
   196  1.9500000000000D+00  2.8436920700604D-02 -1.0450929289708D-01
   197  1.9600000000000D+00  2.6500775690337D-02 -9.6123576782682D-02
   198  1.9700000000000D+00  2.4609128870038D-02 -8.8128282532322D-02
   199  1.9800000000000D+00  2.2769838178455D-02 -8.0529709626014D-02
   200  1.9900000000000D+00  2.0989809178509D-02 -7.3331838774892D-02
   201  2.0000000000000D+00  1.9275015049480D-02 -6.6536415966201D-02
   202  2.0100000000000D+00  1.7630520880285D-02 -6.0143045662150D-02
   203  2.0200000000000D+00  1.6060511881460D-02 -5.4149292217791D-02
   204  2.0300000000000D+00  1.4568325045719D-02 -4.8550788345145D-02
   205  2.0400000000000D+00  1.3156484430005D-02 -4.3341351198884D-02
   206  2.0500000000000D+00  1.1826739219080D-02 -3.8513103884013D-02
   207  2.0600000000000D+00  1.0580104743689D-02 -3.4056602988469D-02
   208  2.0700000000000D+00  9.4169058538216D-03 -2.9960970580484D-02
   209  2.0800000000000D+00  8.3368223877685D-03 -2.6214030075506D-02
   210  2.0900000000000D+00  7.3389365090173D-03 -2.2802445480345D-02
   211  2.1000000000000D+00  6.4217814371295D-03 -1.9711862746790D-02
   212  2.1100000000000D+00  5.5833913209637D-03 -1.6927052754414D-02
   213  2.1200000000000D+00  4.8213519208210D-03 -1.4432055008354D-02
   214  2.1300000000000D+00  4.1328517405935D-03 -1.2210321211538D-02
   215  2.1400000000000D+00  3.5147331999908D-03 -1.0244857729023D-02
   216  2.1500000000000D+00  2.9635438058271D-03 -8.5183667867216D-03
   217  2.1600000000000D+00  2.4755865317374D-03 -7.0133845193563D-03
   218  2.1700000000000D+00  2.0469695304017D-03 -5.7124161352649D-03
   219  2.1800000000000D+00  1.6736547608535D-03 -4.5980671797478D-03
   220  2.1900000000000D+00  1.3515048480918D-03 -3.6531692169510D-03
   221  2.2000000000000D+00  1.0763287204633D-03 -2.8609012800680D-03
   222  2.2100000000000D+00  8.4392483004349D-04 -2.2049041249482D-03
   223  2.2200000000000D+00  6.5012219244893D-04 -1.6693878843537D-03
   224  2.2300000000000D+00  4.9081943755926D-04 -1.2392336207648D-03
   225  2.2400000000000D+00  3.6202032951523D-04 -9.0008490425406D-04
   226  2.2500000000000D+00  2.5986712786565D-04 -6.3843289672921D-04
   227  2.2600000000000D+00  1.8067067463384D-04 -4.4169213674513D-04
   228  2.2700000000000D+00  1.2093710820692D-04 -2.9832146394382D-04
   229  2.2800000000000D+00  7.7390689377408D-05 -1.9767675186610D-04
   230  2.2900000000000D+00  4.6992368573534D-05 -1.3022249698768D-04
   231  2.3000000000000D+00  2.6926518066738D-05 -8.7271172444993D-05
   232  2.3100000000000D+00  1.4759645637424D-05 -6.2767475162225D-05
   233  2.3200000000000D+00  8.3348500910367D-06 -5.1522294777114D-05
   234  2.3300000000000D+00  5.6681216201612D-06 -4.8246950716015D-05
   235  2.3400000000000D+00  4.6585807800028D-06 -4.4972257823397D-05
   236  2.3500000000000D+00  3.6116302633773D-06 -3.5163154639133D-05
   237  2.3600000000000D+00  2.0148293392712D-06 -1.9250409297185D-05
   238  2.3700000000000D+00  4.0238429193418D-07 -3.7355548642668D-06
   239  2.3800000000000D+00 -3.6676116901228D-07  3.6977151358940D-06
   240  2.3900000000000D+00 -3.8185352788104D-07  3.8310669959124D-06
   241  2.4000000000000D+00 -5.4774388155378D-08  5.4635923527513D-07
   242  2.4100000000000D+00  7.6966849999781D-08 -8.4662782542272D-07
   243  2.4200000000000D+00  7.4274388182016D-08 -8.2225141833603D-07
   244  2.4300000000000D+00  2.1990808295246D-09 -2.4475534172968D-08
   245  2.4400000000000D+00 -1.1101270986653D-08  1.0781641422076D-07
   246  2.4500000000000D+00 -9.9692382065991D-09  9.6822023103511D-08
   247  2.4600000000000D+00  0.0000000000000D+00  0.0000000000000D+00
   248  2.4700000000000D+00  0.0000000000000D+00  0.0000000000000D+00
   249  2.4800000000000D+00  0.0000000000000D+00  0.0000000000000D+00
   250  2.4900000000000D+00  0.0000000000000D+00  0.0000000000000D+00
   251  2.5000000000000D+00  0.0000000000000D+00  0.0000000000000D+00
   252  2.5100000000000D+00  0.0000000000000D+00  0.0000000000000D+00
   253  2.5200000000000D+00  0.0000000000000D+00  0.0000000000000D+00
   254  2.5300000000000D+00  0.0000000000000D+00  0.0000000000000D+00
   255  2.5400000000000D+00  0.0000000000000D+00  0.0000000000000D+00
   256  2.5500000000000D+00  0.0000000000000D+00  0.0000000000000D+00
   257  2.5600000000000D+00  0.0000000000000D+00  0.0000000000000D+00
   258  2.5700000000000D+00  0.0000000000000D+00  0.0000000000000D+00
   259  2.5800000000000D+00  0.0000000000000D+00  0.0000000000000D+00
   260  2.5900000000000D+00  0.0000000000000D+00  0.0000000000000D+00
   261  2.6000000000000D+00  0.0000000000000D+00  0.0000000000000D+00
   262  2.6100000000000D+00  0.0000000000000D+00  0.0000000000000D+00
   263  2.6200000000000D+00  0.0000000000000D+00  0.0000000000000D+00
   264  2.6300000000000D+00  0.0000000000000D+00  0.0000000000000D+00
   265  2.6400000000000D+00  0.0000000000000D+00  0.0000000000000D+00
   266  2.6500000000000D+00  0.0000000000000D+00  0.0000000000000D+00
   267  2.6600000000000D+00  0.0000000000000D+00  0.0000000000000D+00
   268  2.6700000000000D+00  0.0000000000000D+00  0.0000000000000D+00
   269  2.6800000000000D+00  0.0000000000000D+00  0.0000000000000D+00
   270  2.6900000000000D+00  0.0000000000000D+00  0.0000000000000D+00
   271  2.7000000000000D+00  0.0000000000000D+00  0.0000000000000D+00
   272  2.7100000000000D+00  0.0000000000000D+00  0.0000000000000D+00
   273  2.7200000000000D+00  0.0000000000000D+00  0.0000000000000D+00
   274  2.7300000000000D+00  0.0000000000000D+00  0.0000000000000D+00
   275  2.7400000000000D+00  0.0000000000000D+00  0.0000000000000D+00
   276  2.7500000000000D+00  0.0000000000000D+00  0.0000000000000D+00
   277  2.7600000000000D+00  0.0000000000000D+00  0.0000000000000D+00
   278  2.7700000000000D+00  0.0000000000000D+00  0.0000000000000D+00
   279  2.7800000000000D+00  0.0000000000000D+00  0.0000000000000D+00
   280  2.7900000000000D+00  0.0000000000000D+00  0.0000000000000D+00
   281  2.8000000000000D+00  0.0000000000000D+00  0.0000000000000D+00
   282  2.8100000000000D+00  0.0000000000000D+00  0.0000000000000D+00
   283  2.8200000000000D+00  0.0000000000000D+00  0.0000000000000D+00
   284  2.8300000000000D+00  0.0000000000000D+00  0.0000000000000D+00
   285  2.8400000000000D+00  0.0000000000000D+00  0.0000000000000D+00
   286  2.8500000000000D+00  0.0000000000000D+00  0.0000000000000D+00
   287  2.8600000000000D+00  0.0000000000000D+00  0.0000000000000D+00
   288  2.8700000000000D+00  0.0000000000000D+00  0.0000000000000D+00
   289  2.8800000000000D+00  0.0000000000000D+00  0.0000000000000D+00
   290  2.8900000000000D+00  0.0000000000000D+00  0.0000000000000D+00
   291  2.9000000000000D+00  0.0000000000000D+00  0.0000000000000D+00
   292  2.9100000000000D+00  0.0000000000000D+00  0.0000000000000D+00
   293  2.9200000000000D+00  0.0000000000000D+00  0.0000000000000D+00
   294  2.9300000000000D+00  0.0000000000000D+00  0.0000000000000D+00
   295  2.9400000000000D+00  0.0000000000000D+00  0.0000000000000D+00
   296  2.9500000000000D+00  0.0000000000000D+00  0.0000000000000D+00
   297  2.9600000000000D+00  0.0000000000000D+00  0.0000000000000D+00
   298  2.9700000000000D+00  0.0000000000000D+00  0.0000000000000D+00
   299  2.9800000000000D+00  0.0000000000000D+00  0.0000000000000D+00
   300  2.9900000000000D+00  0.0000000000000D+00  0.0000000000000D+00
   301  3.0000000000000D+00  0.0000000000000D+00  0.0000000000000D+00
   302  3.0100000000000D+00  0.0000000000000D+00  0.0000000000000D+00
   303  3.0200000000000D+00  0.0000000000000D+00  0.0000000000000D+00
   304  3.0300000000000D+00  0.0000000000000D+00  0.0000000000000D+00
   305  3.0400000000000D+00  0.0000000000000D+00  0.0000000000000D+00
   306  3.0500000000000D+00  0.0000000000000D+00  0.0000000000000D+00
   307  3.0600000000000D+00  0.0000000000000D+00  0.0000000000000D+00
   308  3.0700000000000D+00  0.0000000000000D+00  0.0000000000000D+00
   309  3.0800000000000D+00  0.0000000000000D+00  0.0000000000000D+00
   310  3.0900000000000D+00  0.0000000000000D+00  0.0000000000000D+00
   311  3.1000000000000D+00  0.0000000000000D+00  0.0000000000000D+00
   312  3.1100000000000D+00  0.0000000000000D+00  0.0000000000000D+00
   313  3.1200000000000D+00  0.0000000000000D+00  0.0000000000000D+00
   314  3.1300000000000D+00  0.0000000000000D+00  0.0000000000000D+00
   315  3.1400000000000D+00  0.0000000000000D+00  0.0000000000000D+00
   316  3.1500000000000D+00  0.0000000000000D+00  0.0000000000000D+00
   317  3.1600000000000D+00  0.0000000000000D+00  0.0000000000000D+00
   318  3.1700000000000D+00  0.0000000000000D+00  0.0000000000000D+00
   319  3.1800000000000D+00  0.0000000000000D+00  0.0000000000000D+00
   320  3.1900000000000D+00  0.0000000000000D+00  0.0000000000000D+00
   321  3.2000000000000D+00  0.0000000000000D+00  0.0000000000000D+00
   322  3.2100000000000D+00  0.0000000000000D+00  0.0000000000000D+00
   323  3.2200000000000D+00  0.0000000000000D+00  0.0000000000000D+00
   324  3.2300000000000D+00  0.0000000000000D+00  0.0000000000000D+00
   325  3.2400000000000D+00  0.0000000000000D+00  0.0000000000000D+00
   326  3.2500000000000D+00  0.0000000000000D+00  0.0000000000000D+00
   327  3.2600000000000D+00  0.0000000000000D+00  0.0000000000000D+00
   328  3.2700000000000D+00  0.0000000000000D+00  0.0000000000000D+00
   329  3.2800000000000D+00  0.0000000000000D+00  0.0000000000000D+00
   330  3.2900000000000D+00  0.0000000000000D+00  0.0000000000000D+00
   331  3.3000000000000D+00  0.0000000000000D+00  0.0000000000000D+00
   332  3.3100000000000D+00  0.0000000000000D+00  0.0000000000000D+00
   333  3.3200000000000D+00  0.0000000000000D+00  0.0000000000000D+00
   334  3.3300000000000D+00  0.0000000000000D+00  0.0000000000000D+00
   335  3.3400000000000D+00  0.0000000000000D+00  0.0000000000000D+00
   336  3.3500000000000D+00  0.0000000000000D+00  0.0000000000000D+00
   337  3.3600000000000D+00  0.0000000000000D+00  0.0000000000000D+00
   338  3.3700000000000D+00  0.0000000000000D+00  0.0000000000000D+00
   339  3.3800000000000D+00  0.0000000000000D+00  0.0000000000000D+00
   340  3.3900000000000D+00  0.0000000000000D+00  0.0000000000000D+00
   341  3.4000000000000D+00  0.0000000000000D+00  0.0000000000000D+00
   342  3.4100000000000D+00  0.0000000000000D+00  0.0000000000000D+00
   343  3.4200000000000D+00  0.0000000000000D+00  0.0000000000000D+00
   344  3.4300000000000D+00  0.0000000000000D+00  0.0000000000000D+00
   345  3.4400000000000D+00  0.0000000000000D+00  0.0000000000000D+00
   346  3.4500000000000D+00  0.0000000000000D+00  0.0000000000000D+00
   347  3.4600000000000D+00  0.0000000000000D+00  0.0000000000000D+00
   348  3.4700000000000D+00  0.0000000000000D+00  0.0000000000000D+00
   349  3.4800000000000D+00  0.0000000000000D+00  0.0000000000000D+00
   350  3.4900000000000D+00  0.0000000000000D+00  0.0000000000000D+00
   351  3.5000000000000D+00  0.0000000000000D+00  0.0000000000000D+00
   352  3.5100000000000D+00  0.0000000000000D+00  0.0000000000000D+00
   353  3.5200000000000D+00  0.0000000000000D+00  0.0000000000000D+00
   354  3.5300000000000D+00  0.0000000000000D+00  0.0000000000000D+00
   355  3.5400000000000D+00  0.0000000000000D+00  0.0000000000000D+00
   356  3.5500000000000D+00  0.0000000000000D+00  0.0000000000000D+00
   357  3.5600000000000D+00  0.0000000000000D+00  0.0000000000000D+00
   358  3.5700000000000D+00  0.0000000000000D+00  0.0000000000000D+00
   359  3.5800000000000D+00  0.0000000000000D+00  0.0000000000000D+00
   360  3.5900000000000D+00  0.0000000000000D+00  0.0000000000000D+00
   361  3.6000000000000D+00  0.0000000000000D+00  0.0000000000000D+00
   362  3.6100000000000D+00  0.0000000000000D+00  0.0000000000000D+00
   363  3.6200000000000D+00  0.0000000000000D+00  0.0000000000000D+00
   364  3.6300000000000D+00  0.0000000000000D+00  0.0000000000000D+00
   365  3.6400000000000D+00  0.0000000000000D+00  0.0000000000000D+00
   366  3.6500000000000D+00  0.0000000000000D+00  0.0000000000000D+00
   367  3.6600000000000D+00  0.0000000000000D+00  0.0000000000000D+00
   368  3.6700000000000D+00  0.0000000000000D+00  0.0000000000000D+00
   369  3.6800000000000D+00  0.0000000000000D+00  0.0000000000000D+00
   370  3.6900000000000D+00  0.0000000000000D+00  0.0000000000000D+00
   371  3.7000000000000D+00  0.0000000000000D+00  0.0000000000000D+00
   372  3.7100000000000D+00  0.0000000000000D+00  0.0000000000000D+00
   373  3.7200000000000D+00  0.0000000000000D+00  0.0000000000000D+00
   374  3.7300000000000D+00  0.0000000000000D+00  0.0000000000000D+00
   375  3.7400000000000D+00  0.0000000000000D+00  0.0000000000000D+00
   376  3.7500000000000D+00  0.0000000000000D+00  0.0000000000000D+00
   377  3.7600000000000D+00  0.0000000000000D+00  0.0000000000000D+00
   378  3.7700000000000D+00  0.0000000000000D+00  0.0000000000000D+00
   379  3.7800000000000D+00  0.0000000000000D+00  0.0000000000000D+00
   380  3.7900000000000D+00  0.0000000000000D+00  0.0000000000000D+00
   381  3.8000000000000D+00  0.0000000000000D+00  0.0000000000000D+00
   382  3.8100000000000D+00  0.0000000000000D+00  0.0000000000000D+00
   383  3.8200000000000D+00  0.0000000000000D+00  0.0000000000000D+00
   384  3.8300000000000D+00  0.0000000000000D+00  0.0000000000000D+00
   385  3.8400000000000D+00  0.0000000000000D+00  0.0000000000000D+00
   386  3.8500000000000D+00  0.0000000000000D+00  0.0000000000000D+00
   387  3.8600000000000D+00  0.0000000000000D+00  0.0000000000000D+00
   388  3.8700000000000D+00  0.0000000000000D+00  0.0000000000000D+00
   389  3.8800000000000D+00  0.0000000000000D+00  0.0000000000000D+00
   390  3.8900000000000D+00  0.0000000000000D+00  0.0000000000000D+00
   391  3.9000000000000D+00  0.0000000000000D+00  0.0000000000000D+00
   392  3.9100000000000D+00  0.0000000000000D+00  0.0000000000000D+00
   393  3.9200000000000D+00  0.0000000000000D+00  0.0000000000000D+00
   394  3.9300000000000D+00  0.0000000000000D+00  0.0000000000000D+00
   395  3.9400000000000D+00  0.0000000000000D+00  0.0000000000000D+00
   396  3.9500000000000D+00  0.0000000000000D+00  0.0000000000000D+00
   397  3.9600000000000D+00  0.0000000000000D+00  0.0000000000000D+00
   398  3.9700000000000D+00  0.0000000000000D+00  0.0000000000000D+00
   399  3.9800000000000D+00  0.0000000000000D+00  0.0000000000000D+00
   400  3.9900000000000D+00  0.0000000000000D+00  0.0000000000000D+00
   401  4.0000000000000D+00  0.0000000000000D+00  0.0000000000000D+00
   402  4.0100000000000D+00  0.0000000000000D+00  0.0000000000000D+00
   403  4.0200000000000D+00  0.0000000000000D+00  0.0000000000000D+00
   404  4.0300000000000D+00  0.0000000000000D+00  0.0000000000000D+00
   405  4.0400000000000D+00  0.0000000000000D+00  0.0000000000000D+00
   406  4.0500000000000D+00  0.0000000000000D+00  0.0000000000000D+00
   407  4.0600000000000D+00  0.0000000000000D+00  0.0000000000000D+00
   408  4.0700000000000D+00  0.0000000000000D+00  0.0000000000000D+00
   409  4.0800000000000D+00  0.0000000000000D+00  0.0000000000000D+00
   410  4.0900000000000D+00  0.0000000000000D+00  0.0000000000000D+00
   411  4.1000000000000D+00  0.0000000000000D+00  0.0000000000000D+00
   412  4.1100000000000D+00  0.0000000000000D+00  0.0000000000000D+00
   413  4.1200000000000D+00  0.0000000000000D+00  0.0000000000000D+00
   414  4.1300000000000D+00  0.0000000000000D+00  0.0000000000000D+00
   415  4.1400000000000D+00  0.0000000000000D+00  0.0000000000000D+00
   416  4.1500000000000D+00  0.0000000000000D+00  0.0000000000000D+00
   417  4.1600000000000D+00  0.0000000000000D+00  0.0000000000000D+00
   418  4.1700000000000D+00  0.0000000000000D+00  0.0000000000000D+00
   419  4.1800000000000D+00  0.0000000000000D+00  0.0000000000000D+00
   420  4.1900000000000D+00  0.0000000000000D+00  0.0000000000000D+00
   421  4.2000000000000D+00  0.0000000000000D+00  0.0000000000000D+00
   422  4.2100000000000D+00  0.0000000000000D+00  0.0000000000000D+00