In    ONCVPSP-3.3.1  r_core=   3.39782   3.43859   2.67664
     49.0000     13.0000      210904    zatom,zion,pspd
     8      11   2     4   600     0    pspcod,pspxc,lmax,lloc,mmax,r2well
  5.99000000  0.00000000  0.00000000    rchrg fchrg qchrg
     2     2     2     0     0    nproj
     1     1           extension_switch
   0                         4.8308042757388D+00  4.5448752412239D-01
     1  0.0000000000000D+00 -1.0647038806155D-13  1.5394352459452D-12
     2  1.0000000000000D-02  1.4856958946653D-02 -3.2496493136889D-03
     3  2.0000000000000D-02  2.9718089046588D-02 -6.5045917282674D-03
     4  3.0000000000000D-02  4.4587541905840D-02 -9.7701035928899D-03
     5  4.0000000000000D-02  5.9469430065587D-02 -1.3051427734356D-02
     6  5.0000000000000D-02  7.4367807543844D-02 -1.6353756649098D-02
     7  6.0000000000000D-02  8.9286650466167D-02 -1.9682215640040D-02
     8  7.0000000000000D-02  1.0422983781518D-01 -2.3041845881718D-02
     9  8.0000000000000D-02  1.1920113232880D-01 -2.6437587398573D-02
    10  9.0000000000000D-02  1.3420416157720D-01 -2.9874261943167D-02
    11  1.0000000000000D-01  1.4924239924864D-01 -3.3356555763310D-02
    12  1.1000000000000D-01  1.6431914667453D-01 -3.6889002249598D-02
    13  1.2000000000000D-01  1.7943751462420D-01 -4.0475964457753D-02
    14  1.3000000000000D-01  1.9460040540004D-01 -4.4121617503268D-02
    15  1.4000000000000D-01  2.0981049526386D-01 -4.7829930829301D-02
    16  1.5000000000000D-01  2.2507021722566D-01 -5.1604650352481D-02
    17  1.6000000000000D-01  2.4038174422578D-01 -5.5449280495133D-02
    18  1.7000000000000D-01  2.5574697274221D-01 -5.9367066116578D-02
    19  1.8000000000000D-01  2.7116750685433D-01 -6.3360974360454D-02
    20  1.9000000000000D-01  2.8664464279498D-01 -6.7433676439435D-02
    21  2.0000000000000D-01  3.0217935402275D-01 -7.1587529383214D-02
    22  2.1000000000000D-01  3.1777227684631D-01 -7.5824557780370D-02
    23  2.2000000000000D-01  3.3342369663286D-01 -8.0146435549286D-02
    24  2.3000000000000D-01  3.4913353463282D-01 -8.4554467778075D-02
    25  2.4000000000000D-01  3.6490133545254D-01 -8.9049572678120D-02
    26  2.5000000000000D-01  3.8072625520708D-01 -9.3632263700503D-02
    27  2.6000000000000D-01  3.9660705038484D-01 -9.8302631869093D-02
    28  2.7000000000000D-01  4.1254206745541D-01 -1.0306032838856D-01
    29  2.8000000000000D-01  4.2852923325206D-01 -1.0790454758982D-01
    30  2.9000000000000D-01  4.4456604615961D-01 -1.1283401027960D-01
    31  3.0000000000000D-01  4.6064956813823D-01 -1.1784694756447D-01
    32  3.1000000000000D-01  4.7677641761295D-01 -1.2294108522365D-01
    33  3.2000000000000D-01  4.9294276325820D-01 -1.2811362870795D-01
    34  3.3000000000000D-01  5.0914431870586D-01 -1.3336124884538D-01
    35  3.4000000000000D-01  5.2537633820447D-01 -1.3868006833651D-01
    36  3.5000000000000D-01  5.4163361325643D-01 -1.4406564912530D-01
    37  3.6000000000000D-01  5.5791047025873D-01 -1.4951298073254D-01
    38  3.7000000000000D-01  5.7420076917182D-01 -1.5501646964095D-01
    39  3.8000000000000D-01  5.9049790323972D-01 -1.6056992982182D-01
    40  3.9000000000000D-01  6.0679479978328D-01 -1.6616657449374D-01
    41  4.0000000000000D-01  6.2308392208677D-01 -1.7179900920392D-01
    42  4.1000000000000D-01  6.3935727239640D-01 -1.7745922632244D-01
    43  4.2000000000000D-01  6.5560639604767D-01 -1.8313860103847D-01
    44  4.3000000000000D-01  6.7182238673647D-01 -1.8882788894640D-01
    45  4.4000000000000D-01  6.8799589294673D-01 -1.9451722530770D-01
    46  4.5000000000000D-01  7.0411712554551D-01 -2.0019612607147D-01
    47  4.6000000000000D-01  7.2017586655395D-01 -2.0585349073427D-01
    48  4.7000000000000D-01  7.3616147910027D-01 -2.1147760711523D-01
    49  4.8000000000000D-01  7.5206291855829D-01 -2.1705615811923D-01
    50  4.9000000000000D-01  7.6786874487270D-01 -2.2257623055537D-01
    51  5.0000000000000D-01  7.8356713606923D-01 -2.2802432607318D-01
    52  5.1000000000000D-01  7.9914590294523D-01 -2.3338637427317D-01
    53  5.2000000000000D-01  8.1459250493344D-01 -2.3864774804174D-01
    54  5.3000000000000D-01  8.2989406712826D-01 -2.4379328115398D-01
    55  5.4000000000000D-01  8.4503739846142D-01 -2.4880728818055D-01
    56  5.5000000000000D-01  8.6000901101012D-01 -2.5367358672683D-01
    57  5.6000000000000D-01  8.7479514041816D-01 -2.5837552202486D-01
    58  5.7000000000000D-01  8.8938176740673D-01 -2.6289599388942D-01
    59  5.8000000000000D-01  9.0375464034874D-01 -2.6721748604139D-01
    60  5.9000000000000D-01  9.1789929887681D-01 -2.7132209779142D-01
    61  6.0000000000000D-01  9.3180109849202D-01 -2.7519157806810D-01
    62  6.1000000000000D-01  9.4544523613694D-01 -2.7880736176459D-01
    63  6.2000000000000D-01  9.5881677669307D-01 -2.8215060836745D-01
    64  6.3000000000000D-01  9.7190068035964D-01 -2.8520224282161D-01
    65  6.4000000000000D-01  9.8468183086722D-01 -2.8794299857458D-01
    66  6.5000000000000D-01  9.9714506447621D-01 -2.9035346273249D-01
    67  6.6000000000000D-01  1.0092751997073D+00 -2.9241412325036D-01
    68  6.7000000000000D-01  1.0210570677477D+00 -2.9410541806786D-01
    69  6.8000000000000D-01  1.0324755434728D+00 -2.9540778609160D-01
    70  6.9000000000000D-01  1.0435155770227D+00 -2.9630171991453D-01
    71  7.0000000000000D-01  1.0541622258663D+00 -2.9676782015239D-01
    72  7.1000000000000D-01  1.0644006872851D+00 -2.9678685126738D-01
    73  7.2000000000000D-01  1.0742163312071D+00 -2.9633979873886D-01
    74  7.3000000000000D-01  1.0835947333155D+00 -2.9540792743172D-01
    75  7.4000000000000D-01  1.0925217083570D+00 -2.9397284100329D-01
    76  7.5000000000000D-01  1.1009833435723D+00 -2.9201654218098D-01
    77  7.6000000000000D-01  1.1089660321663D+00 -2.8952149373437D-01
    78  7.7000000000000D-01  1.1164565067388D+00 -2.8647067995726D-01
    79  7.8000000000000D-01  1.1234418725892D+00 -2.8284766846783D-01
    80  7.9000000000000D-01  1.1299096408107D+00 -2.7863667212795D-01
    81  8.0000000000000D-01  1.1358477610886D+00 -2.7382261087677D-01
    82  8.1000000000000D-01  1.1412446541127D+00 -2.6839117326740D-01
    83  8.2000000000000D-01  1.1460892435173D+00 -2.6232887749119D-01
    84  8.3000000000000D-01  1.1503709872583D+00 -2.5562313166935D-01
    85  8.4000000000000D-01  1.1540799083396D+00 -2.4826229318852D-01
    86  8.5000000000000D-01  1.1572066247979D+00 -2.4023572685405D-01
    87  8.6000000000000D-01  1.1597423788572D+00 -2.3153386163291D-01
    88  8.7000000000000D-01  1.1616790651656D+00 -2.2214824575731D-01
    89  8.8000000000000D-01  1.1630092580241D+00 -2.1207159995973D-01
    90  8.9000000000000D-01  1.1637262375232D+00 -2.0129786861125D-01
    91  9.0000000000000D-01  1.1638240145002D+00 -1.8982226853632D-01
    92  9.1000000000000D-01  1.1632973542336D+00 -1.7764133528015D-01
    93  9.2000000000000D-01  1.1621417987940D+00 -1.6475296660829D-01
    94  9.3000000000000D-01  1.1603536879697D+00 -1.5115646302268D-01
    95  9.4000000000000D-01  1.1579301786919D+00 -1.3685256508369D-01
    96  9.5000000000000D-01  1.1548692628844D+00 -1.2184348733444D-01
    97  9.6000000000000D-01  1.1511697836661D+00 -1.0613294863094D-01
    98  9.7000000000000D-01  1.1468314498388D+00 -8.9726198689916D-02
    99  9.8000000000000D-01  1.1418548485966D+00 -7.2630040675708D-02
   100  9.9000000000000D-01  1.1362414563952D+00 -5.4852849657493D-02
   101  1.0000000000000D+00  1.1299936479263D+00 -3.6404586779490D-02
   102  1.0100000000000D+00  1.1231147031438D+00 -1.7296808998670D-02
   103  1.0200000000000D+00  1.1156088122968D+00  2.4573257426809D-03
   104  1.0300000000000D+00  1.1074810789238D+00  2.2843058028560D-02
   105  1.0400000000000D+00  1.0987375207748D+00  4.3844031269405D-02
   106  1.0500000000000D+00  1.0893850686261D+00  6.5442300880198D-02
   107  1.0600000000000D+00  1.0794315629632D+00  8.7618348410421D-02
   108  1.0700000000000D+00  1.0688857485111D+00  1.1035110068221D-01
   109  1.0800000000000D+00  1.0577572665958D+00  1.3361795397694D-01
   110  1.0900000000000D+00  1.0460566453300D+00  1.5739480329192D-01
   111  1.1000000000000D+00  1.0337952876190D+00  1.8165607667112D-01
   112  1.1100000000000D+00  1.0209854569905D+00  2.0637477459594D-01
   113  1.1200000000000D+00  1.0076402612587D+00  2.3152251440102D-01
   114  1.1300000000000D+00  9.9377363403863D-01  2.5706957966241D-01
   115  1.1400000000000D+00  9.7940031413429D-01  2.8298497448401D-01
   116  1.1500000000000D+00  9.6453582282847D-01  3.0923648259232D-01
   117  1.1600000000000D+00  9.4919643911166D-01  3.3579073112375D-01
   118  1.1700000000000D+00  9.3339917289225D-01  3.6261325897260D-01
   119  1.1800000000000D+00  9.1716173623702D-01  3.8966858954636D-01
   120  1.1900000000000D+00  9.0050251269701D-01  4.1692030775753D-01
   121  1.2000000000000D+00  8.8344052478172D-01  4.4433114105678D-01
   122  1.2100000000000D+00  8.6599539965049D-01  4.7186304429341D-01
   123  1.2200000000000D+00  8.4818733309417D-01  4.9947728817701D-01
   124  1.2300000000000D+00  8.3003705188955D-01  5.2713455108485D-01
   125  1.2400000000000D+00  8.1156577461371D-01  5.5479501394482D-01
   126  1.2500000000000D+00  7.9279517101025D-01  5.8241845791023D-01
   127  1.2600000000000D+00  7.7374732000611D-01  6.0996436452044D-01
   128  1.2700000000000D+00  7.5444466648459D-01  6.3739201802147D-01
   129  1.2800000000000D+00  7.3490997692249D-01  6.6466060951297D-01
   130  1.2900000000000D+00  7.1516629400581D-01  6.9172934256837D-01
   131  1.3000000000000D+00  6.9523689034535D-01  7.1855753995409D-01
   132  1.3100000000000D+00  6.7514522141396D-01  7.4510475107237D-01
   133  1.3200000000000D+00  6.5491487783388D-01  7.7133085973178D-01
   134  1.3300000000000D+00  6.3456953714860D-01  7.9719619183314D-01
   135  1.3400000000000D+00  6.1413291521157D-01  8.2266162256260D-01
   136  1.3500000000000D+00  5.9362871733309D-01  8.4768868265917D-01
   137  1.3600000000000D+00  5.7308058932816D-01  8.7223966331944D-01
   138  1.3700000000000D+00  5.5251206860680D-01  8.9627771930522D-01
   139  1.3800000000000D+00  5.3194653545750D-01  9.1976696979540D-01
   140  1.3900000000000D+00  5.1140716467030D-01  9.4267259653494D-01
   141  1.4000000000000D+00  4.9091687765045D-01  9.6496093882115D-01
   142  1.4100000000000D+00  4.7049829517466D-01  9.8659958486807D-01
   143  1.4200000000000D+00  4.5017369094110D-01  1.0075574590890D+00
   144  1.4300000000000D+00  4.2996494606676D-01  1.0278049048357D+00
   145  1.4400000000000D+00  4.0989350468301D-01  1.0473137621401D+00
   146  1.4500000000000D+00  3.8998033078380D-01  1.0660574399948D+00
   147  1.4600000000000D+00  3.7024586647321D-01  1.0840109827366D+00
   148  1.4700000000000D+00  3.5070999176742D-01  1.1011511300690D+00
   149  1.4800000000000D+00  3.3139198609368D-01  1.1174563703054D+00
   150  1.4900000000000D+00  3.1231049163495D-01  1.1329069863933D+00
   151  1.5000000000000D+00  2.9348347866443D-01  1.1474850942968D+00
   152  1.5100000000000D+00  2.7492821300347D-01  1.1611746733545D+00
   153  1.5200000000000D+00  2.5666122575295D-01  1.1739615881698D+00
   154  1.5300000000000D+00  2.3869828541084D-01  1.1858336017258D+00
   155  1.5400000000000D+00  2.2105437253076D-01  1.1967803792664D+00
   156  1.5500000000000D+00  2.0374365701830D-01  1.2067934826932D+00
   157  1.5600000000000D+00  1.8677947820974D-01  1.2158663550563D+00
   158  1.5700000000000D+00  1.7017432782812D-01  1.2239942948959D+00
   159  1.5800000000000D+00  1.5393983593762D-01  1.2311744200974D+00
   160  1.5900000000000D+00  1.3808675999563D-01  1.2374056209996D+00
   161  1.6000000000000D+00  1.2262497709359D-01  1.2426885025260D+00
   162  1.6100000000000D+00  1.0756347949303D-01  1.2470253150533D+00
   163  1.6200000000000D+00  9.2910373513646D-02  1.2504198739074D+00
   164  1.6300000000000D+00  7.8672881888388D-02  1.2528774671696D+00
   165  1.6400000000000D+00  6.4857349605327D-02  1.2544047518133D+00
   166  1.6500000000000D+00  5.1469253359946D-02  1.2550096378249D+00
   167  1.6600000000000D+00  3.8513214599436D-02  1.2547011604570D+00
   168  1.6700000000000D+00  2.5993016289857D-02  1.2534893402469D+00
   169  1.6800000000000D+00  1.3911623350518D-02  1.2513850310722D+00
   170  1.6900000000000D+00  2.2712069075635D-03  1.2483997519880D+00
   171  1.7000000000000D+00 -8.9268278388958D-03  1.2445455295441D+00
   172  1.7100000000000D+00 -1.9681809027205D-02  1.2398346479909D+00
   173  1.7200000000000D+00 -2.9993765765652D-02  1.2342796053734D+00
   174  1.7300000000000D+00 -3.9863383422779D-02  1.2278927672435D+00
   175  1.7400000000000D+00 -4.9291964293333D-02  1.2206858378429D+00
   176  1.7500000000000D+00 -5.8281381617678D-02  1.2126703610106D+00
   177  1.7600000000000D+00 -6.6834025961906D-02  1.2038581189684D+00
   178  1.7700000000000D+00 -7.4952786222455D-02  1.1942615750170D+00
   179  1.7800000000000D+00 -8.2641034314150D-02  1.1838946577487D+00
   180  1.7900000000000D+00 -8.9902610861713D-02  1.1727727747333D+00
   181  1.8000000000000D+00 -9.6741818235098D-02  1.1609125476797D+00
   182  1.8100000000000D+00 -1.0316340902785D-01  1.1483317991440D+00
   183  1.8200000000000D+00 -1.0917257159135D-01  1.1350495557948D+00
   184  1.8300000000000D+00 -1.1477491731209D-01  1.1210859702011D+00
   185  1.8400000000000D+00 -1.1997646633168D-01  1.1064622826156D+00
   186  1.8500000000000D+00 -1.2478363282004D-01  1.0912007645285D+00
   187  1.8600000000000D+00 -1.2920320957763D-01  1.0753246634722D+00
   188  1.8700000000000D+00 -1.3324235207760D-01  1.0588581460245D+00
   189  1.8800000000000D+00 -1.3690856195298D-01  1.0418262390787D+00
   190  1.8900000000000D+00 -1.4020967000613D-01  1.0242547696461D+00
   191  1.9000000000000D+00 -1.4315381875279D-01  1.0061703032935D+00
   192  1.9100000000000D+00 -1.4574944456674D-01  9.8760008143623D-01
   193  1.9200000000000D+00 -1.4800525945723D-01  9.6857195765033D-01
   194  1.9300000000000D+00 -1.4993023252820D-01  9.4911433317961D-01
   195  1.9400000000000D+00 -1.5153357116753D-01  9.2925609182257D-01
   196  1.9500000000000D+00 -1.5282470200782D-01  9.0902653438934D-01
   197  1.9600000000000D+00 -1.5381325170769D-01  8.8845531286094D-01
   198  1.9700000000000D+00 -1.5450902760275D-01  8.6757236451038D-01
   199  1.9800000000000D+00 -1.5492199826334D-01  8.4640784604755D-01
   200  1.9900000000000D+00 -1.5506227401832D-01  8.2499206807155D-01
   201  2.0000000000000D+00 -1.5494008747860D-01  8.0335542991602D-01
   202  2.0100000000000D+00 -1.5456577410817D-01  7.8152835506561D-01
   203  2.0200000000000D+00 -1.5394975290088D-01  7.5954122738169D-01
   204  2.0300000000000D+00 -1.5310250717021D-01  7.3742432810196D-01
   205  2.0400000000000D+00 -1.5203456554917D-01  7.1520777403628D-01
   206  2.0500000000000D+00 -1.5075648318316D-01  6.9292145682068D-01
   207  2.0600000000000D+00 -1.4927882319782D-01  6.7059498356187D-01
   208  2.0700000000000D+00 -1.4761213847159D-01  6.4825761896287D-01
   209  2.0800000000000D+00 -1.4576695371626D-01  6.2593822890831D-01
   210  2.0900000000000D+00 -1.4375374797443D-01  6.0366522593660D-01
   211  2.1000000000000D+00 -1.4158293747706D-01  5.8146651633479D-01
   212  2.1100000000000D+00 -1.3926485897045D-01  5.5936944927272D-01
   213  2.1200000000000D+00 -1.3680975351102D-01  5.3740076794566D-01
   214  2.1300000000000D+00 -1.3422775072559D-01  5.1558656269405D-01
   215  2.1400000000000D+00 -1.3152885365424D-01  4.9395222653157D-01
   216  2.1500000000000D+00 -1.2872292408602D-01  4.7252241271898D-01
   217  2.1600000000000D+00 -1.2581966850375D-01  4.5132099480511D-01
   218  2.1700000000000D+00 -1.2282862463186D-01  4.3037102909331D-01
   219  2.1800000000000D+00 -1.1975914854679D-01  4.0969471936688D-01
   220  2.1900000000000D+00 -1.1662040249853D-01  3.8931338440370D-01
   221  2.2000000000000D+00 -1.1342134331792D-01  3.6924742780357D-01
   222  2.2100000000000D+00 -1.1017071150709D-01  3.4951631046855D-01
   223  2.2200000000000D+00 -1.0687702103698D-01  3.3013852580679D-01
   224  2.2300000000000D+00 -1.0354854976144D-01  3.1113157731555D-01
   225  2.2400000000000D+00 -1.0019333059816D-01  2.9251195907177D-01
   226  2.2500000000000D+00 -9.6819143377849D-02  2.7429513875726D-01
   227  2.2600000000000D+00 -9.3433507370024D-02  2.5649554323311D-01
   228  2.2700000000000D+00 -9.0043674589179D-02  2.3912654702347D-01
   229  2.2800000000000D+00 -8.6656623741975D-02  2.2220046318709D-01
   230  2.2900000000000D+00 -8.3279054911614D-02  2.0572853690997D-01
   231  2.3000000000000D+00 -7.9917384978504D-02  1.8972094180044D-01
   232  2.3100000000000D+00 -7.6577743675802D-02  1.7418677850072D-01
   233  2.3200000000000D+00 -7.3265970411128D-02  1.5913407607809D-01
   234  2.3300000000000D+00 -6.9987611765121D-02  1.4456979585397D-01
   235  2.3400000000000D+00 -6.6747919617454D-02  1.3049983747355D-01
   236  2.3500000000000D+00 -6.3551850038327D-02  1.1692904770680D-01
   237  2.3600000000000D+00 -6.0404062782613D-02  1.0386123136753D-01
   238  2.3700000000000D+00 -5.7308921425315D-02  9.1299164476509D-02
   239  2.3800000000000D+00 -5.4270494193695D-02  7.9244609855948D-02
   240  2.3900000000000D+00 -5.1292555361667D-02  6.7698334646857D-02
   241  2.4000000000000D+00 -4.8378587265260D-02  5.6660129948898D-02
   242  2.4100000000000D+00 -4.5531782939700D-02  4.6128832568415D-02
   243  2.4200000000000D+00 -4.2755049271909D-02  3.6102348471968D-02
   244  2.4300000000000D+00 -4.0051010735205D-02  2.6577678170690D-02
   245  2.4400000000000D+00 -3.7422013665659D-02  1.7550943871489D-02
   246  2.4500000000000D+00 -3.4870131000902D-02  9.0174180962556D-03
   247  2.4600000000000D+00 -3.2397167544454D-02  9.7155397265188D-04
   248  2.4700000000000D+00 -3.0004665690345D-02 -6.5929830525909D-03
   249  2.4800000000000D+00 -2.7693911551558D-02 -1.3683282288366D-02
   250  2.4900000000000D+00 -2.5465941541244D-02 -2.0307153522737D-02
   251  2.5000000000000D+00 -2.3321549333505D-02 -2.6473091663097D-02
   252  2.5100000000000D+00 -2.1261293164910D-02 -3.2190240433336D-02
   253  2.5200000000000D+00 -1.9285503502496D-02 -3.7468355091660D-02
   254  2.5300000000000D+00 -1.7394291012530D-02 -4.2317764393217D-02
   255  2.5400000000000D+00 -1.5587554803381D-02 -4.6749331888818D-02
   256  2.5500000000000D+00 -1.3864990939473D-02 -5.0774416647429D-02
   257  2.5600000000000D+00 -1.2226101178745D-02 -5.4404833543095D-02
   258  2.5700000000000D+00 -1.0670201916144D-02 -5.7652813157898D-02
   259  2.5800000000000D+00 -9.1964332977481D-03 -6.0530961526403D-02
   260  2.5900000000000D+00 -7.8037684819965D-03 -6.3052219758659D-02
   261  2.6000000000000D+00 -6.4910230383077D-03 -6.5229823557451D-02
   262  2.6100000000000D+00 -5.2568644181186D-03 -6.7077262975849D-02
   263  2.6200000000000D+00 -4.0998214944658D-03 -6.8608242376333D-02
   264  2.6300000000000D+00 -3.0182941715001D-03 -6.9836640552768D-02
   265  2.6400000000000D+00 -2.0105629776393D-03 -7.0776471442289D-02
   266  2.6500000000000D+00 -1.0747986429805D-03 -7.1441845386074D-02
   267  2.6600000000000D+00 -2.0907168081020D-04 -7.1846930811053D-02
   268  2.6700000000000D+00  5.8863811665210D-04 -7.2005916758073D-02
   269  2.6800000000000D+00  1.3204322933335D-03 -7.1932976352756D-02
   270  2.6900000000000D+00  1.9884844040967D-03 -7.1642230943422D-02
   271  2.7000000000000D+00  2.5950308157032D-03 -7.1147715208635D-02
   272  2.7100000000000D+00  3.1423617292563D-03 -7.0463343667528D-02
   273  2.7200000000000D+00  3.6328123241447D-03 -6.9602878091575D-02
   274  2.7300000000000D+00  4.0687540310543D-03 -6.8579895841191D-02
   275  2.7400000000000D+00  4.4525861599112D-03 -6.7407760162160D-02
   276  2.7500000000000D+00  4.7867276854290D-03 -6.6099591497435D-02
   277  2.7600000000000D+00  5.0736091821472D-03 -6.4668239768887D-02
   278  2.7700000000000D+00  5.3156651929832D-03 -6.3126258912024D-02
   279  2.7800000000000D+00  5.5153268068882D-03 -6.1485882614683D-02
   280  2.7900000000000D+00  5.6750144478128D-03 -5.9759001258533D-02
   281  2.8000000000000D+00  5.7971310541310D-03 -5.7957140855677D-02
   282  2.8100000000000D+00  5.8840556001552D-03 -5.6091443743643D-02
   283  2.8200000000000D+00  5.9381368689614D-03 -5.4172650613005D-02
   284  2.8300000000000D+00  5.9616875143559D-03 -5.2211084023568D-02
   285  2.8400000000000D+00  5.9569786333030D-03 -5.0216634378286D-02
   286  2.8500000000000D+00  5.9262345957672D-03 -4.8198747208073D-02
   287  2.8600000000000D+00  5.8716280892129D-03 -4.6166411571062D-02
   288  2.8700000000000D+00  5.7952757681797D-03 -4.4128151267661D-02
   289  2.8800000000000D+00  5.6992341556011D-03 -4.2092017297860D-02
   290  2.8900000000000D+00  5.5854958371046D-03 -4.0065581731570D-02
   291  2.9000000000000D+00  5.4559860723423D-03 -3.8055933514527D-02
   292  2.9100000000000D+00  5.3125598475841D-03 -3.6069676298400D-02
   293  2.9200000000000D+00  5.1569992319564D-03 -3.4112927678536D-02
   294  2.9300000000000D+00  4.9910109290992D-03 -3.2191319366085D-02
   295  2.9400000000000D+00  4.8162244852074D-03 -3.0310000251553D-02
   296  2.9500000000000D+00  4.6341906783073D-03 -2.8473640305830D-02
   297  2.9600000000000D+00  4.4463801987146D-03 -2.6686435781615D-02
   298  2.9700000000000D+00  4.2541827413527D-03 -2.4952116203209D-02
   299  2.9800000000000D+00  4.0589064707452D-03 -2.3273952962782D-02
   300  2.9900000000000D+00  3.8617777655783D-03 -2.1654769110515D-02
   301  3.0000000000000D+00  3.6639411182130D-03 -2.0096949818503D-02
   302  3.0100000000000D+00  3.4664596058194D-03 -1.8602455209081D-02
   303  3.0200000000000D+00  3.2703154903575D-03 -1.7172833709369D-02
   304  3.0300000000000D+00  3.0764110784593D-03 -1.5809236462224D-02
   305  3.0400000000000D+00  2.8855698568074D-03 -1.4512432829018D-02
   306  3.0500000000000D+00  2.6985379495375D-03 -1.3282827147521D-02
   307  3.0600000000000D+00  2.5159857508885D-03 -1.2120476140403D-02
   308  3.0700000000000D+00  2.3385097106128D-03 -1.1025106898672D-02
   309  3.0800000000000D+00  2.1666344359534D-03 -9.9961360001736D-03
   310  3.0900000000000D+00  2.0008149306713D-03 -9.0326890883418D-03
   311  3.1000000000000D+00  1.8414390005033D-03 -8.1336209923326D-03
   312  3.1100000000000D+00  1.6888297828222D-03 -7.2975362486639D-03
   313  3.1200000000000D+00  1.5432484773042D-03 -6.5228101699168D-03
   314  3.1300000000000D+00  1.4048971503459D-03 -5.8076100821002D-03
   315  3.1400000000000D+00  1.2739216568124D-03 -5.1499168637381D-03
   316  3.1500000000000D+00  1.1504146441594D-03 -4.5475465827833D-03
   317  3.1600000000000D+00  1.0344186161802D-03 -3.9981720798212D-03
   318  3.1700000000000D+00  9.2592904645130D-04 -3.4993445429560D-03
   319  3.1800000000000D+00  8.2489756518967D-04 -3.0485151918394D-03
   320  3.1900000000000D+00  7.3123511262616D-04 -2.6430564326183D-03
   321  3.2000000000000D+00  6.4481510445388D-04 -2.2802827921228D-03
   322  3.2100000000000D+00  5.6547655250453D-04 -1.9574713406846D-03
   323  3.2200000000000D+00  4.9302733639737D-04 -1.6718826156467D-03
   324  3.2300000000000D+00  4.2724714787870D-04 -1.4207795540277D-03
   325  3.2400000000000D+00  3.6789052147314D-04 -1.2014466035824D-03
   326  3.2500000000000D+00  3.1468974617980D-04 -1.0112079473633D-03
   327  3.2600000000000D+00  2.6735784253531D-04 -8.4744578670892D-04
   328  3.2700000000000D+00  2.2559116984742D-04 -7.0761646765413D-04
   329  3.2800000000000D+00  1.8908148755274D-04 -5.8930548890852D-04
   330  3.2900000000000D+00  1.5753154831711D-04 -4.9029669342069D-04
   331  3.3000000000000D+00  1.3053043185996D-04 -4.0806108014948D-04
   332  3.3100000000000D+00  1.0771726921856D-04 -3.4043774264798D-04
   333  3.3200000000000D+00  8.8648598844081D-05 -2.8512893189552D-04
   334  3.3300000000000D+00  7.2827421199730D-05 -2.3981365148974D-04
   335  3.3400000000000D+00  6.0456628868517D-05 -2.0495678277164D-04
   336  3.3500000000000D+00  5.1346714917343D-05 -1.7973714086658D-04
   337  3.3600000000000D+00  4.5471958415189D-05 -1.6406983252767D-04
   338  3.3700000000000D+00  4.2735559611468D-05 -1.5774023651451D-04
   339  3.3800000000000D+00  4.0791768378858D-05 -1.5254969521532D-04
   340  3.3900000000000D+00  3.8262582076152D-05 -1.4385365027082D-04
   341  3.4000000000000D+00  3.3568619955183D-05 -1.2631889696103D-04
   342  3.4100000000000D+00  2.5160853102952D-05 -9.4728811295274D-05
   343  3.4200000000000D+00  1.5691364275322D-05 -5.9049383457481D-05
   344  3.4300000000000D+00  6.5361681388720D-06 -2.4573597273993D-05
   345  3.4400000000000D+00 -5.8766498886268D-07  2.2220261303685D-06
   346  3.4500000000000D+00 -3.2118906440861D-06  1.2148183453457D-05
   347  3.4600000000000D+00 -3.4501799187702D-06  1.3051819468222D-05
   348  3.4700000000000D+00 -2.0529580721635D-06  7.7669961835422D-06
   349  3.4800000000000D+00  1.1480435704277D-08 -4.3497311239657D-08
   350  3.4900000000000D+00  6.2658421417649D-07 -2.3747404021218D-06
   351  3.5000000000000D+00  8.0599766904895D-07 -3.0555238040588D-06
   352  3.5100000000000D+00  5.7292899419559D-07 -2.1724693462107D-06
   353  3.5200000000000D+00  8.7015025033142D-08 -3.3001701652736D-07
   354  3.5300000000000D+00 -6.4287737704199D-08  2.4183773831286D-07
   355  3.5400000000000D+00 -9.8919405477993D-08  3.7211521435274D-07
   356  3.5500000000000D+00 -8.2142327763963D-08  3.0900317036500D-07
   357  3.5600000000000D+00 -2.6625622396232D-08  1.0016031877035D-07
   358  3.5700000000000D+00  0.0000000000000D+00  0.0000000000000D+00
   359  3.5800000000000D+00  0.0000000000000D+00  0.0000000000000D+00
   360  3.5900000000000D+00  0.0000000000000D+00  0.0000000000000D+00
   361  3.6000000000000D+00  0.0000000000000D+00  0.0000000000000D+00
   362  3.6100000000000D+00  0.0000000000000D+00  0.0000000000000D+00
   363  3.6200000000000D+00  0.0000000000000D+00  0.0000000000000D+00
   364  3.6300000000000D+00  0.0000000000000D+00  0.0000000000000D+00
   365  3.6400000000000D+00  0.0000000000000D+00  0.0000000000000D+00
   366  3.6500000000000D+00  0.0000000000000D+00  0.0000000000000D+00
   367  3.6600000000000D+00  0.0000000000000D+00  0.0000000000000D+00
   368  3.6700000000000D+00  0.0000000000000D+00  0.0000000000000D+00
   369  3.6800000000000D+00  0.0000000000000D+00  0.0000000000000D+00
   370  3.6900000000000D+00  0.0000000000000D+00  0.0000000000000D+00
   371  3.7000000000000D+00  0.0000000000000D+00  0.0000000000000D+00
   372  3.7100000000000D+00  0.0000000000000D+00  0.0000000000000D+00
   373  3.7200000000000D+00  0.0000000000000D+00  0.0000000000000D+00
   374  3.7300000000000D+00  0.0000000000000D+00  0.0000000000000D+00
   375  3.7400000000000D+00  0.0000000000000D+00  0.0000000000000D+00
   376  3.7500000000000D+00  0.0000000000000D+00  0.0000000000000D+00
   377  3.7600000000000D+00  0.0000000000000D+00  0.0000000000000D+00
   378  3.7700000000000D+00  0.0000000000000D+00  0.0000000000000D+00
   379  3.7800000000000D+00  0.0000000000000D+00  0.0000000000000D+00
   380  3.7900000000000D+00  0.0000000000000D+00  0.0000000000000D+00
   381  3.8000000000000D+00  0.0000000000000D+00  0.0000000000000D+00
   382  3.8100000000000D+00  0.0000000000000D+00  0.0000000000000D+00
   383  3.8200000000000D+00  0.0000000000000D+00  0.0000000000000D+00
   384  3.8300000000000D+00  0.0000000000000D+00  0.0000000000000D+00
   385  3.8400000000000D+00  0.0000000000000D+00  0.0000000000000D+00
   386  3.8500000000000D+00  0.0000000000000D+00  0.0000000000000D+00
   387  3.8600000000000D+00  0.0000000000000D+00  0.0000000000000D+00
   388  3.8700000000000D+00  0.0000000000000D+00  0.0000000000000D+00
   389  3.8800000000000D+00  0.0000000000000D+00  0.0000000000000D+00
   390  3.8900000000000D+00  0.0000000000000D+00  0.0000000000000D+00
   391  3.9000000000000D+00  0.0000000000000D+00  0.0000000000000D+00
   392  3.9100000000000D+00  0.0000000000000D+00  0.0000000000000D+00
   393  3.9200000000000D+00  0.0000000000000D+00  0.0000000000000D+00
   394  3.9300000000000D+00  0.0000000000000D+00  0.0000000000000D+00
   395  3.9400000000000D+00  0.0000000000000D+00  0.0000000000000D+00
   396  3.9500000000000D+00  0.0000000000000D+00  0.0000000000000D+00
   397  3.9600000000000D+00  0.0000000000000D+00  0.0000000000000D+00
   398  3.9700000000000D+00  0.0000000000000D+00  0.0000000000000D+00
   399  3.9800000000000D+00  0.0000000000000D+00  0.0000000000000D+00
   400  3.9900000000000D+00  0.0000000000000D+00  0.0000000000000D+00
   401  4.0000000000000D+00  0.0000000000000D+00  0.0000000000000D+00
   402  4.0100000000000D+00  0.0000000000000D+00  0.0000000000000D+00
   403  4.0200000000000D+00  0.0000000000000D+00  0.0000000000000D+00
   404  4.0300000000000D+00  0.0000000000000D+00  0.0000000000000D+00
   405  4.0400000000000D+00  0.0000000000000D+00  0.0000000000000D+00
   406  4.0500000000000D+00  0.0000000000000D+00  0.0000000000000D+00
   407  4.0600000000000D+00  0.0000000000000D+00  0.0000000000000D+00
   408  4.0700000000000D+00  0.0000000000000D+00  0.0000000000000D+00
   409  4.0800000000000D+00  0.0000000000000D+00  0.0000000000000D+00
   410  4.0900000000000D+00  0.0000000000000D+00  0.0000000000000D+00
   411  4.1000000000000D+00  0.0000000000000D+00  0.0000000000000D+00
   412  4.1100000000000D+00  0.0000000000000D+00  0.0000000000000D+00
   413  4.1200000000000D+00  0.0000000000000D+00  0.0000000000000D+00
   414  4.1300000000000D+00  0.0000000000000D+00  0.0000000000000D+00
   415  4.1400000000000D+00  0.0000000000000D+00  0.0000000000000D+00
   416  4.1500000000000D+00  0.0000000000000D+00  0.0000000000000D+00
   417  4.1600000000000D+00  0.0000000000000D+00  0.0000000000000D+00
   418  4.1700000000000D+00  0.0000000000000D+00  0.0000000000000D+00
   419  4.1800000000000D+00  0.0000000000000D+00  0.0000000000000D+00
   420  4.1900000000000D+00  0.0000000000000D+00  0.0000000000000D+00
   421  4.2000000000000D+00  0.0000000000000D+00  0.0000000000000D+00
   422  4.2100000000000D+00  0.0000000000000D+00  0.0000000000000D+00