Ir    ONCVPSP-3.3.1  r_core=   2.29513   2.11127   2.29513   2.91352
     77.0000     17.0000      210904    zatom,zion,pspd
     8      11   3     4   600     0    pspcod,pspxc,lmax,lloc,mmax,r2well
  5.99000000  0.00000000  0.00000000    rchrg fchrg qchrg
     2     4     4     4    nproj
     3     1           extension_switch
     4     4     4    nprojso
   0                         1.3868059565483D+00  6.9314887160363D+00
     1  0.0000000000000D+00 -2.3599996956669D-11  7.9730111401943D-12
     2  1.0000000000000D-02 -9.7961328502342D-03  5.6447319743748D-02
     3  2.0000000000000D-02 -1.9554593243085D-02  1.1281256944683D-01
     4  3.0000000000000D-02 -2.9237695938118D-02  1.6901378844158D-01
     5  4.0000000000000D-02 -3.8807730864441D-02  2.2496923488282D-01
     6  5.0000000000000D-02 -4.8226952538594D-02  2.8059749534837D-01
     7  6.0000000000000D-02 -5.7457571665405D-02  3.3581759466091D-01
     8  7.0000000000000D-02 -6.6461749621609D-02  3.9054910599572D-01
     9  8.0000000000000D-02 -7.5201596498438D-02  4.4471226133054D-01
    10  9.0000000000000D-02 -8.3639173350087D-02  4.9822806228425D-01
    11  1.0000000000000D-01 -9.1736499260276D-02  5.5101839137928D-01
    12  1.1000000000000D-01 -9.9455563799287D-02  6.0300612374910D-01
    13  1.2000000000000D-01 -1.0675834539892D-01  6.5411523929758D-01
    14  1.3000000000000D-01 -1.1360683612342D-01  7.0427093530004D-01
    15  1.4000000000000D-01 -1.1996307326037D-01  7.5339973941833D-01
    16  1.5000000000000D-01 -1.2578917809814D-01  8.0142962308311D-01
    17  1.6000000000000D-01 -1.3104740219440D-01  8.4829011517607D-01
    18  1.7000000000000D-01 -1.3570018137623D-01  8.9391241592413D-01
    19  1.8000000000000D-01 -1.3971019764448D-01  9.3822951089571D-01
    20  1.9000000000000D-01 -1.4304044908538D-01  9.8117628496639D-01
    21  2.0000000000000D-01 -1.4565432782088D-01  1.0226896360990D+00
    22  2.1000000000000D-01 -1.4751570595603D-01  1.0627085887600D+00
    23  2.2000000000000D-01 -1.4858902940767D-01  1.1011744067701D+00
    24  2.3000000000000D-01 -1.4883941942465D-01  1.1380307053662D+00
    25  2.4000000000000D-01 -1.4823278153517D-01  1.1732235622267D+00
    26  2.5000000000000D-01 -1.4673592158327D-01  1.2067016271921D+00
    27  2.6000000000000D-01 -1.4431666844404D-01  1.2384162303914D+00
    28  2.7000000000000D-01 -1.4094400293588D-01  1.2683214884631D+00
    29  2.8000000000000D-01 -1.3658819237948D-01  1.2963744085425D+00
    30  2.9000000000000D-01 -1.3122093018663D-01  1.3225349896682D+00
    31  3.0000000000000D-01 -1.2481547979903D-01  1.3467663212437D+00
    32  3.1000000000000D-01 -1.1734682223720D-01  1.3690346781771D+00
    33  3.2000000000000D-01 -1.0879180646389D-01  1.3893096123073D+00
    34  3.3000000000000D-01 -9.9129301715185D-02  1.4075640397159D+00
    35  3.4000000000000D-01 -8.8340350905509D-02  1.4237743235131D+00
    36  3.5000000000000D-01 -7.6408324171422D-02  1.4379203516827D+00
    37  3.6000000000000D-01 -6.3319071582995D-02  1.4499856095642D+00
    38  3.7000000000000D-01 -4.9061074021320D-02  1.4599572465490D+00
    39  3.8000000000000D-01 -3.3625591196436D-02  1.4678261365709D+00
    40  3.9000000000000D-01 -1.7006805762189D-02  1.4735869319719D+00
    41  4.0000000000000D-01  7.9803752701486D-04  1.4772381103309D+00
    42  4.1000000000000D-01  1.9788498677143D-02  1.4787820138553D+00
    43  4.2000000000000D-01  3.9960816390774D-02  1.4782248809419D+00
    44  4.3000000000000D-01  6.1307790127242D-02  1.4755768695328D+00
    45  4.4000000000000D-01  8.3818671319365D-02  1.4708520719073D+00
    46  4.5000000000000D-01  1.0747906475666D-01  1.4640685205697D+00
    47  4.6000000000000D-01  1.3227084111515D-01  1.4552481849190D+00
    48  4.7000000000000D-01  1.5817206157729D-01  1.4444169584088D+00
    49  4.8000000000000D-01  1.8515691544261D-01  1.4316046359354D+00
    50  4.9000000000000D-01  2.1319567157936D-01  1.4168448812213D+00
    51  5.0000000000000D-01  2.4225464451200D-01  1.4001751839956D+00
    52  5.1000000000000D-01  2.7229617587695D-01  1.3816368068069D+00
    53  5.2000000000000D-01  3.0327863191104D-01  1.3612747213408D+00
    54  5.3000000000000D-01  3.3515641756407D-01  1.3391375341548D+00
    55  5.4000000000000D-01  3.6788000774828D-01  1.3152774017813D+00
    56  5.5000000000000D-01  4.0139599615455D-01  1.2897499351960D+00
    57  5.6000000000000D-01  4.3564716197762D-01  1.2626140936872D+00
    58  5.7000000000000D-01  4.7057255480188D-01  1.2339320682111D+00
    59  5.8000000000000D-01  5.0610759780439D-01  1.2037691543605D+00
    60  5.9000000000000D-01  5.4218420933502D-01  1.1721936151224D+00
    61  6.0000000000000D-01  5.7873094283383D-01  1.1392765336462D+00
    62  6.1000000000000D-01  6.1567314494471D-01  1.1050916562905D+00
    63  6.2000000000000D-01  6.5293313158235D-01  1.0697152262644D+00
    64  6.3000000000000D-01  6.9043038160617D-01  1.0332258082255D+00
    65  6.4000000000000D-01  7.2808174765277D-01  9.9570410424141D-01
    66  6.5000000000000D-01  7.6580168357591D-01  9.5723276156864D-01
    67  6.6000000000000D-01  8.0350248784214D-01  9.1789617274559D-01
    68  6.7000000000000D-01  8.4109456213182D-01  8.7778026853886D-01
    69  6.8000000000000D-01  8.7848668429786D-01  8.3697230432358D-01
    70  6.9000000000000D-01  9.1558629474175D-01  7.9556064051757D-01
    71  7.0000000000000D-01  9.5229979517603D-01  7.5363451772580D-01
    72  7.1000000000000D-01  9.8853285865720D-01  7.1128382728670D-01
    73  7.2000000000000D-01  1.0241907496915D+00  6.6859887794378D-01
    74  7.3000000000000D-01  1.0591786531408D+00  6.2567015939561D-01
    75  7.4000000000000D-01  1.0934020105848D+00  5.8258810350341D-01
    76  7.5000000000000D-01  1.1267668627341D+00  5.3944284395885D-01
    77  7.6000000000000D-01  1.1591801964277D+00  4.9632397523462D-01
    78  7.7000000000000D-01  1.1905502947031D+00  4.5332031165681D-01
    79  7.8000000000000D-01  1.2207870883794D+00  4.1051964745092D-01
    80  7.9000000000000D-01  1.2498025075627D+00  3.6800851862245D-01
    81  8.0000000000000D-01  1.2775108314533D+00  3.2587196753846D-01
    82  8.1000000000000D-01  1.3038290348161D+00  2.8419331107779D-01
    83  8.2000000000000D-01  1.3286771294647D+00  2.4305391321504D-01
    84  8.3000000000000D-01  1.3519784991091D+00  2.0253296289699D-01
    85  8.4000000000000D-01  1.3736602259194D+00  1.6270725805955D-01
    86  8.5000000000000D-01  1.3936534071784D+00  1.2365099661875D-01
    87  8.6000000000000D-01  1.4118934604148D+00  8.5435575250791D-02
    88  8.7000000000000D-01  1.4283204154445D+00  4.8129396753872D-02
    89  8.8000000000000D-01  1.4428791917851D+00  1.1797686758001D-02
    90  8.9000000000000D-01  1.4555198599621D+00 -2.3497679480685D-02
    91  9.0000000000000D-01  1.4661978852759D+00 -5.7698339498434D-02
    92  9.1000000000000D-01  1.4748743526711D+00 -9.0749594589518D-02
    93  9.2000000000000D-01  1.4815161714156D+00 -1.2260054869377D-01
    94  9.3000000000000D-01  1.4860962583796D+00 -1.5320423462431D-01
    95  9.4000000000000D-01  1.4885936987913D+00 -1.8251772710033D-01
    96  9.5000000000000D-01  1.4889938834361D+00 -2.1050224209886D-01
    97  9.6000000000000D-01  1.4872886213668D+00 -2.3712322209132D-01
    98  9.7000000000000D-01  1.4834762272956D+00 -2.6235040678485D-01
    99  9.8000000000000D-01  1.4775615829454D+00 -2.8615788904365D-01
   100  9.9000000000000D-01  1.4695561717517D+00 -3.0852415572380D-01
   101  1.0000000000000D+00  1.4594780864237D+00 -3.2943211321416D-01
   102  1.0100000000000D+00  1.4473520089892D+00 -3.4886909753585D-01
   103  1.0200000000000D+00  1.4332091630729D+00 -3.6682686891396D-01
   104  1.0300000000000D+00  1.4170872382759D+00 -3.8330159079643D-01
   105  1.0400000000000D+00  1.3990302866558D+00 -3.9829379335886D-01
   106  1.0500000000000D+00  1.3790885914188D+00 -4.1180832159043D-01
   107  1.0600000000000D+00  1.3573185080710D+00 -4.2385426812400D-01
   108  1.0700000000000D+00  1.3337822783930D+00 -4.3444489102931D-01
   109  1.0800000000000D+00  1.3085478177198D+00 -4.4359751684902D-01
   110  1.0900000000000D+00  1.2816884761372D+00 -4.5133342921791D-01
   111  1.1000000000000D+00  1.2532827743010D+00 -4.5767774345453D-01
   112  1.1100000000000D+00  1.2234141147188D+00 -4.6265926757869D-01
   113  1.1200000000000D+00  1.1921704694257D+00 -4.6631035025382D-01
   114  1.1300000000000D+00  1.1596440450983D+00 -4.6866671620711D-01
   115  1.1400000000000D+00  1.1259309267326D+00 -4.6976728972220D-01
   116  1.1500000000000D+00  1.0911307011148D+00 -4.6965400684772D-01
   117  1.1600000000000D+00  1.0553460613940D+00 -4.6837161700528D-01
   118  1.1700000000000D+00  1.0186823941450D+00 -4.6596747471859D-01
   119  1.1800000000000D+00  9.8124735036291D-01 -4.6249132221262D-01
   120  1.1900000000000D+00  9.4315040191527D-01 -4.5799506367149D-01
   121  1.2000000000000D+00  9.0450238501647D-01 -4.5253253196497D-01
   122  1.2100000000000D+00  8.6541503233689D-01 -4.4615924867550D-01
   123  1.2200000000000D+00  8.2600049539039D-01 -4.3893217827432D-01
   124  1.2300000000000D+00  7.8637085888454D-01 -4.3090947731554D-01
   125  1.2400000000000D+00  7.4663764872029D-01 -4.2215023951928D-01
   126  1.2500000000000D+00  7.0691133534589D-01 -4.1271423762350D-01
   127  1.2600000000000D+00  6.6730083417372D-01 -4.0266166288852D-01
   128  1.2700000000000D+00  6.2791300474313D-01 -3.9205286312611D-01
   129  1.2800000000000D+00  5.8885215032034D-01 -3.8094808012961D-01
   130  1.2900000000000D+00  5.5021951958606D-01 -3.6940718736396D-01
   131  1.3000000000000D+00  5.1211281200598D-01 -3.5748942874907D-01
   132  1.3100000000000D+00  4.7462568849596D-01 -3.4525315937785D-01
   133  1.3200000000000D+00  4.3784728888915D-01 -3.3275558896263D-01
   134  1.3300000000000D+00  4.0186175763726D-01 -3.2005252876870D-01
   135  1.3400000000000D+00  3.6674777923099D-01 -3.0719814281824D-01
   136  1.3500000000000D+00  3.3257812459168D-01 -2.9424470404023D-01
   137  1.3600000000000D+00  2.9941920970336D-01 -2.8124235604881D-01
   138  1.3700000000000D+00  2.6733066772503D-01 -2.6823888121982D-01
   139  1.3800000000000D+00  2.3636493134678D-01 -2.5527947446810D-01
   140  1.3900000000000D+00  2.0656685509277D-01 -2.4240653106777D-01
   141  1.4000000000000D+00  1.7797326455258D-01 -2.2965941781738D-01
   142  1.4100000000000D+00  1.5061284408727D-01 -2.1707434169932D-01
   143  1.4200000000000D+00  1.2450526476631D-01 -2.0468401180692D-01
   144  1.4300000000000D+00  9.9661135347109D-02 -1.9251753524615D-01
   145  1.4400000000000D+00  7.6084174751818D-02 -1.8060090809403D-01
   146  1.4500000000000D+00  5.3773011912064D-02 -1.6895745653424D-01
   147  1.4600000000000D+00  3.2723564826236D-02 -1.5760847368206D-01
   148  1.4700000000000D+00  1.2929011005760D-02 -1.4657321736695D-01
   149  1.4800000000000D+00 -5.6205561245157D-03 -1.3586883867330D-01
   150  1.4900000000000D+00 -2.2937817887936D-02 -1.2551047645544D-01
   151  1.5000000000000D+00 -3.9038233830460D-02 -1.1551127560633D-01
   152  1.5100000000000D+00 -5.3939926424657D-02 -1.0588243825065D-01
   153  1.5200000000000D+00 -6.7663587608243D-02 -9.6633271509466D-02
   154  1.5300000000000D+00 -8.0232370836285D-02 -8.7771241205836D-02
   155  1.5400000000000D+00 -9.1671773701555D-02 -7.9302030098671D-02
   156  1.5500000000000D+00 -1.0200951251068D-01 -7.1229600128844D-02
   157  1.5600000000000D+00 -1.1127538927693D-01 -6.3556258458149D-02
   158  1.5700000000000D+00 -1.1950115202964D-01 -5.6282726905497D-02
   159  1.5800000000000D+00 -1.2672034908924D-01 -4.9408214497373D-02
   160  1.5900000000000D+00 -1.3296817816198D-01 -4.2930492753509D-02
   161  1.6000000000000D+00 -1.3828133098080D-01 -3.6845973388907D-02
   162  1.6100000000000D+00 -1.4269783433278D-01 -3.1149788060983D-02
   163  1.6200000000000D+00 -1.4625688823667D-01 -2.5835869824491D-02
   164  1.6300000000000D+00 -1.4899870209981D-01 -2.0897035927627D-02
   165  1.6400000000000D+00 -1.5096432961001D-01 -1.6325071613091D-02
   166  1.6500000000000D+00 -1.5219550320434D-01 -1.2110814552579D-02
   167  1.6600000000000D+00 -1.5273446881746D-01 -8.2442395986405D-03
   168  1.6700000000000D+00 -1.5262382177208D-01 -4.7145434735092D-03
   169  1.6800000000000D+00 -1.5190634442663D-01 -1.5102291138843D-03
   170  1.6900000000000D+00 -1.5062484647016D-01  1.3808107203051D-03
   171  1.7000000000000D+00 -1.4882200836929D-01  3.9712108092720D-03
   172  1.7100000000000D+00 -1.4654022886931D-01  6.2740522066331D-03
   173  1.7200000000000D+00 -1.4382147694222D-01  8.3027825325429D-03
   174  1.7300000000000D+00 -1.4070714906703D-01  1.0071138218254D-02
   175  1.7400000000000D+00 -1.3723793214130D-01  1.1593068853234D-02
   176  1.7500000000000D+00 -1.3345367284146D-01  1.2882663999142D-02
   177  1.7600000000000D+00 -1.2939325368400D-01  1.3954082601990D-02
   178  1.7700000000000D+00 -1.2509447645588D-01  1.4821485306052D-02
   179  1.7800000000000D+00 -1.2059395329491D-01  1.5498969812373D-02
   180  1.7900000000000D+00 -1.1592700583976D-01  1.6000509482752D-02
   181  1.8000000000000D+00 -1.1112757286259D-01  1.6339895386685D-02
   182  1.8100000000000D+00 -1.0622812642446D-01  1.6530681835188D-02
   183  1.8200000000000D+00 -1.0125959722203D-01  1.6586135705179D-02
   184  1.8300000000000D+00 -9.6251308668995D-02  1.6519189390706D-02
   185  1.8400000000000D+00 -9.1230920737960D-02  1.6342397835430D-02
   186  1.8500000000000D+00 -8.6224382387397D-02  1.6067899190267D-02
   187  1.8600000000000D+00 -8.1255894305736D-02  1.5707379821957D-02
   188  1.8700000000000D+00 -7.6347880601973D-02  1.5272043120394D-02
   189  1.8800000000000D+00 -7.1520969723502D-02  1.4772582323415D-02
   190  1.8900000000000D+00 -6.6793983723978D-02  1.4219156993195D-02
   191  1.9000000000000D+00 -6.2183937883359D-02  1.3621373906633D-02
   192  1.9100000000000D+00 -5.7706049799112D-02  1.2988272039336D-02
   193  1.9200000000000D+00 -5.3373756399364D-02  1.2328311114520D-02
   194  1.9300000000000D+00 -4.9198738492994D-02  1.1649363630508D-02
   195  1.9400000000000D+00 -4.5190953197019D-02  1.0958710411325D-02
   196  1.9500000000000D+00 -4.1358675547759D-02  1.0263040224255D-02
   197  1.9600000000000D+00 -3.7708545795116D-02  9.5684521469250D-03
   198  1.9700000000000D+00 -3.4245625248970D-02  8.8804617751217D-03
   199  1.9800000000000D+00 -3.0973458739899D-02  8.2040105184826D-03
   200  1.9900000000000D+00 -2.7894142206455D-02  7.5434774816198D-03
   201  2.0000000000000D+00 -2.5008394702889D-02  6.9026936857039D-03
   202  2.0100000000000D+00 -2.2315634772519D-02  6.2849585473635D-03
   203  2.0200000000000D+00 -1.9814063991675D-02  5.6930596545982D-03
   204  2.0300000000000D+00 -1.7500753273205D-02  5.1292942006354D-03
   205  2.0400000000000D+00 -1.5371731826519D-02  4.5954920826846D-03
   206  2.0500000000000D+00 -1.3422078681896D-02  4.0930405806348D-03
   207  2.0600000000000D+00 -1.1646016314489D-02  3.6229104305098D-03
   208  2.0700000000000D+00 -1.0037005928711D-02  3.1856831419851D-03
   209  2.0800000000000D+00 -8.5878434845802D-03  2.7815791771873D-03
   210  2.0900000000000D+00 -7.2907557339246D-03  2.4104867444525D-03
   211  2.1000000000000D+00 -6.1374960428117D-03  2.0719910824209D-03
   212  2.1100000000000D+00 -5.1194392350469D-03  1.7654039469824D-03
   213  2.1200000000000D+00 -4.2276746088537D-03  1.4897929801885D-03
   214  2.1300000000000D+00 -3.4530974129655D-03  1.2440110375229D-03
   215  2.1400000000000D+00 -2.7864969902255D-03  1.0267248087509D-03
   216  2.1500000000000D+00 -2.2186422136998D-03  8.3644294142115D-04
   217  2.1600000000000D+00 -1.7403633198781D-03  6.7154332214518D-04
   218  2.1700000000000D+00 -1.3426289598085D-03  5.3029906174164D-04
   219  2.1800000000000D+00 -1.0166197453435D-03  4.1090365042695D-04
   220  2.1900000000000D+00 -7.5379579692683D-04  3.1149433059746D-04
   221  2.2000000000000D+00 -5.4595931229864D-04  2.3017406135130D-04
   222  2.2100000000000D+00 -3.8531207737738D-04  1.6503203505220D-04
   223  2.2200000000000D+00 -2.6453044907070D-04  1.1416165460613D-04
   224  2.2300000000000D+00 -1.7672962193281D-04  7.5677937435465D-05
   225  2.2400000000000D+00 -1.1554036711609D-04  4.7731711787307D-05
   226  2.2500000000000D+00 -7.4907660660757D-05  2.8466831804227D-05
   227  2.2600000000000D+00 -5.0377282784125D-05  1.6245991922315D-05
   228  2.2700000000000D+00 -3.7948395283742D-05  9.4873809946782D-06
   229  2.2800000000000D+00 -3.3726173356039D-05  6.6205664950966D-06
   230  2.2900000000000D+00 -3.1032544784680D-05  5.4848707731303D-06
   231  2.3000000000000D+00 -2.4345518072082D-05  4.2485492532837D-06
   232  2.3100000000000D+00 -1.3225609728549D-05  2.3273691664780D-06
   233  2.3200000000000D+00 -2.3614907186120D-06  4.2304817253738D-07
   234  2.3300000000000D+00  2.6088540290707D-06 -4.3904897846451D-07
   235  2.3400000000000D+00  2.5117891595751D-06 -4.2313288018493D-07
   236  2.3500000000000D+00  1.4396405018699D-07 -2.4303209933414D-08
   237  2.3600000000000D+00 -6.0969262777702D-07  9.7819017251482D-08
   238  2.3700000000000D+00 -5.0702580301678D-07  8.0980172641930D-08
   239  2.3800000000000D+00  1.3261456456251D-08 -2.3263736580906D-09
   240  2.3900000000000D+00  7.9131884252666D-08 -1.3881607321774D-08
   241  2.4000000000000D+00  5.5844917825090D-08 -9.7965216863706D-09
   242  2.4100000000000D+00  0.0000000000000D+00  0.0000000000000D+00
   243  2.4200000000000D+00  0.0000000000000D+00  0.0000000000000D+00
   244  2.4300000000000D+00  0.0000000000000D+00  0.0000000000000D+00
   245  2.4400000000000D+00  0.0000000000000D+00  0.0000000000000D+00
   246  2.4500000000000D+00  0.0000000000000D+00  0.0000000000000D+00
   247  2.4600000000000D+00  0.0000000000000D+00  0.0000000000000D+00
   248  2.4700000000000D+00  0.0000000000000D+00  0.0000000000000D+00
   249  2.4800000000000D+00  0.0000000000000D+00  0.0000000000000D+00
   250  2.4900000000000D+00  0.0000000000000D+00  0.0000000000000D+00
   251  2.5000000000000D+00  0.0000000000000D+00  0.0000000000000D+00
   252  2.5100000000000D+00  0.0000000000000D+00  0.0000000000000D+00
   253  2.5200000000000D+00  0.0000000000000D+00  0.0000000000000D+00
   254  2.5300000000000D+00  0.0000000000000D+00  0.0000000000000D+00
   255  2.5400000000000D+00  0.0000000000000D+00  0.0000000000000D+00
   256  2.5500000000000D+00  0.0000000000000D+00  0.0000000000000D+00
   257  2.5600000000000D+00  0.0000000000000D+00  0.0000000000000D+00
   258  2.5700000000000D+00  0.0000000000000D+00  0.0000000000000D+00
   259  2.5800000000000D+00  0.0000000000000D+00  0.0000000000000D+00
   260  2.5900000000000D+00  0.0000000000000D+00  0.0000000000000D+00
   261  2.6000000000000D+00  0.0000000000000D+00  0.0000000000000D+00
   262  2.6100000000000D+00  0.0000000000000D+00  0.0000000000000D+00
   263  2.6200000000000D+00  0.0000000000000D+00  0.0000000000000D+00
   264  2.6300000000000D+00  0.0000000000000D+00  0.0000000000000D+00
   265  2.6400000000000D+00  0.0000000000000D+00  0.0000000000000D+00
   266  2.6500000000000D+00  0.0000000000000D+00  0.0000000000000D+00
   267  2.6600000000000D+00  0.0000000000000D+00  0.0000000000000D+00
   268  2.6700000000000D+00  0.0000000000000D+00  0.0000000000000D+00
   269  2.6800000000000D+00  0.0000000000000D+00  0.0000000000000D+00
   270  2.6900000000000D+00  0.0000000000000D+00  0.0000000000000D+00
   271  2.7000000000000D+00  0.0000000000000D+00  0.0000000000000D+00
   272  2.7100000000000D+00  0.0000000000000D+00  0.0000000000000D+00
   273  2.7200000000000D+00  0.0000000000000D+00  0.0000000000000D+00
   274  2.7300000000000D+00  0.0000000000000D+00  0.0000000000000D+00
   275  2.7400000000000D+00  0.0000000000000D+00  0.0000000000000D+00
   276  2.7500000000000D+00  0.0000000000000D+00  0.0000000000000D+00
   277  2.7600000000000D+00  0.0000000000000D+00  0.0000000000000D+00
   278  2.7700000000000D+00  0.0000000000000D+00  0.0000000000000D+00
   279  2.7800000000000D+00  0.0000000000000D+00  0.0000000000000D+00
   280  2.7900000000000D+00  0.0000000000000D+00  0.0000000000000D+00
   281  2.8000000000000D+00  0.0000000000000D+00  0.0000000000000D+00
   282  2.8100000000000D+00  0.0000000000000D+00  0.0000000000000D+00
   283  2.8200000000000D+00  0.0000000000000D+00  0.0000000000000D+00
   284  2.8300000000000D+00  0.0000000000000D+00  0.0000000000000D+00
   285  2.8400000000000D+00  0.0000000000000D+00  0.0000000000000D+00
   286  2.8500000000000D+00  0.0000000000000D+00  0.0000000000000D+00
   287  2.8600000000000D+00  0.0000000000000D+00  0.0000000000000D+00
   288  2.8700000000000D+00  0.0000000000000D+00  0.0000000000000D+00
   289  2.8800000000000D+00  0.0000000000000D+00  0.0000000000000D+00
   290  2.8900000000000D+00  0.0000000000000D+00  0.0000000000000D+00
   291  2.9000000000000D+00  0.0000000000000D+00  0.0000000000000D+00
   292  2.9100000000000D+00  0.0000000000000D+00  0.0000000000000D+00
   293  2.9200000000000D+00  0.0000000000000D+00  0.0000000000000D+00
   294  2.9300000000000D+00  0.0000000000000D+00  0.0000000000000D+00
   295  2.9400000000000D+00  0.0000000000000D+00  0.0000000000000D+00
   296  2.9500000000000D+00  0.0000000000000D+00  0.0000000000000D+00
   297  2.9600000000000D+00  0.0000000000000D+00  0.0000000000000D+00
   298  2.9700000000000D+00  0.0000000000000D+00  0.0000000000000D+00
   299  2.9800000000000D+00  0.0000000000000D+00  0.0000000000000D+00
   300  2.9900000000000D+00  0.0000000000000D+00  0.0000000000000D+00
   301  3.0000000000000D+00  0.0000000000000D+00  0.0000000000000D+00
   302  3.0100000000000D+00  0.0000000000000D+00  0.0000000000000D+00
   303  3.0200000000000D+00  0.0000000000000D+00  0.0000000000000D+00
   304  3.0300000000000D+00  0.0000000000000D+00  0.0000000000000D+00
   305  3.0400000000000D+00  0.0000000000000D+00  0.0000000000000D+00
   306  3.0500000000000D+00  0.0000000000000D+00  0.0000000000000D+00
   307  3.0600000000000D+00  0.0000000000000D+00  0.0000000000000D+00
   308  3.0700000000000D+00  0.0000000000000D+00  0.0000000000000D+00
   309  3.0800000000000D+00  0.0000000000000D+00  0.0000000000000D+00
   310  3.0900000000000D+00  0.0000000000000D+00  0.0000000000000D+00
   311  3.1000000000000D+00  0.0000000000000D+00  0.0000000000000D+00
   312  3.1100000000000D+00  0.0000000000000D+00  0.0000000000000D+00
   313  3.1200000000000D+00  0.0000000000000D+00  0.0000000000000D+00
   314  3.1300000000000D+00  0.0000000000000D+00  0.0000000000000D+00
   315  3.1400000000000D+00  0.0000000000000D+00  0.0000000000000D+00
   316  3.1500000000000D+00  0.0000000000000D+00  0.0000000000000D+00
   317  3.1600000000000D+00  0.0000000000000D+00  0.0000000000000D+00
   318  3.1700000000000D+00  0.0000000000000D+00  0.0000000000000D+00
   319  3.1800000000000D+00  0.0000000000000D+00  0.0000000000000D+00
   320  3.1900000000000D+00  0.0000000000000D+00  0.0000000000000D+00
   321  3.2000000000000D+00  0.0000000000000D+00  0.0000000000000D+00
   322  3.2100000000000D+00  0.0000000000000D+00  0.0000000000000D+00
   323  3.2200000000000D+00  0.0000000000000D+00  0.0000000000000D+00
   324  3.2300000000000D+00  0.0000000000000D+00  0.0000000000000D+00
   325  3.2400000000000D+00  0.0000000000000D+00  0.0000000000000D+00
   326  3.2500000000000D+00  0.0000000000000D+00  0.0000000000000D+00
   327  3.2600000000000D+00  0.0000000000000D+00  0.0000000000000D+00
   328  3.2700000000000D+00  0.0000000000000D+00  0.0000000000000D+00
   329  3.2800000000000D+00  0.0000000000000D+00  0.0000000000000D+00
   330  3.2900000000000D+00  0.0000000000000D+00  0.0000000000000D+00
   331  3.3000000000000D+00  0.0000000000000D+00  0.0000000000000D+00
   332  3.3100000000000D+00  0.0000000000000D+00  0.0000000000000D+00
   333  3.3200000000000D+00  0.0000000000000D+00  0.0000000000000D+00
   334  3.3300000000000D+00  0.0000000000000D+00  0.0000000000000D+00
   335  3.3400000000000D+00  0.0000000000000D+00  0.0000000000000D+00
   336  3.3500000000000D+00  0.0000000000000D+00  0.0000000000000D+00
   337  3.3600000000000D+00  0.0000000000000D+00  0.0000000000000D+00
   338  3.3700000000000D+00  0.0000000000000D+00  0.0000000000000D+00
   339  3.3800000000000D+00  0.0000000000000D+00  0.0000000000000D+00
   340  3.3900000000000D+00  0.0000000000000D+00  0.0000000000000D+00
   341  3.4000000000000D+00  0.0000000000000D+00  0.0000000000000D+00
   342  3.4100000000000D+00  0.0000000000000D+00  0.0000000000000D+00
   343  3.4200000000000D+00  0.0000000000000D+00  0.0000000000000D+00
   344  3.4300000000000D+00  0.0000000000000D+00  0.0000000000000D+00
   345  3.4400000000000D+00  0.0000000000000D+00  0.0000000000000D+00
   346  3.4500000000000D+00  0.0000000000000D+00  0.0000000000000D+00
   347  3.4600000000000D+00  0.0000000000000D+00  0.0000000000000D+00
   348  3.4700000000000D+00  0.0000000000000D+00  0.0000000000000D+00
   349  3.4800000000000D+00  0.0000000000000D+00  0.0000000000000D+00
   350  3.4900000000000D+00  0.0000000000000D+00  0.0000000000000D+00
   351  3.5000000000000D+00  0.0000000000000D+00  0.0000000000000D+00
   352  3.5100000000000D+00  0.0000000000000D+00  0.0000000000000D+00
   353  3.5200000000000D+00  0.0000000000000D+00  0.0000000000000D+00
   354  3.5300000000000D+00  0.0000000000000D+00  0.0000000000000D+00
   355  3.5400000000000D+00  0.0000000000000D+00  0.0000000000000D+00
   356  3.5500000000000D+00  0.0000000000000D+00  0.0000000000000D+00
   357  3.5600000000000D+00  0.0000000000000D+00  0.0000000000000D+00
   358  3.5700000000000D+00  0.0000000000000D+00  0.0000000000000D+00
   359  3.5800000000000D+00  0.0000000000000D+00  0.0000000000000D+00
   360  3.5900000000000D+00  0.0000000000000D+00  0.0000000000000D+00
   361  3.6000000000000D+00  0.0000000000000D+00  0.0000000000000D+00
   362  3.6100000000000D+00  0.0000000000000D+00  0.0000000000000D+00
   363  3.6200000000000D+00  0.0000000000000D+00  0.0000000000000D+00
   364  3.6300000000000D+00  0.0000000000000D+00  0.0000000000000D+00
   365  3.6400000000000D+00  0.0000000000000D+00  0.0000000000000D+00
   366  3.6500000000000D+00  0.0000000000000D+00  0.0000000000000D+00
   367  3.6600000000000D+00  0.0000000000000D+00  0.0000000000000D+00
   368  3.6700000000000D+00  0.0000000000000D+00  0.0000000000000D+00
   369  3.6800000000000D+00  0.0000000000000D+00  0.0000000000000D+00
   370  3.6900000000000D+00  0.0000000000000D+00  0.0000000000000D+00
   371  3.7000000000000D+00  0.0000000000000D+00  0.0000000000000D+00
   372  3.7100000000000D+00  0.0000000000000D+00  0.0000000000000D+00
   373  3.7200000000000D+00  0.0000000000000D+00  0.0000000000000D+00
   374  3.7300000000000D+00  0.0000000000000D+00  0.0000000000000D+00
   375  3.7400000000000D+00  0.0000000000000D+00  0.0000000000000D+00
   376  3.7500000000000D+00  0.0000000000000D+00  0.0000000000000D+00
   377  3.7600000000000D+00  0.0000000000000D+00  0.0000000000000D+00
   378  3.7700000000000D+00  0.0000000000000D+00  0.0000000000000D+00
   379  3.7800000000000D+00  0.0000000000000D+00  0.0000000000000D+00
   380  3.7900000000000D+00  0.0000000000000D+00  0.0000000000000D+00
   381  3.8000000000000D+00  0.0000000000000D+00  0.0000000000000D+00
   382  3.8100000000000D+00  0.0000000000000D+00  0.0000000000000D+00
   383  3.8200000000000D+00  0.0000000000000D+00  0.0000000000000D+00
   384  3.8300000000000D+00  0.0000000000000D+00  0.0000000000000D+00
   385  3.8400000000000D+00  0.0000000000000D+00  0.0000000000000D+00
   386  3.8500000000000D+00  0.0000000000000D+00  0.0000000000000D+00
   387  3.8600000000000D+00  0.0000000000000D+00  0.0000000000000D+00
   388  3.8700000000000D+00  0.0000000000000D+00  0.0000000000000D+00
   389  3.8800000000000D+00  0.0000000000000D+00  0.0000000000000D+00
   390  3.8900000000000D+00  0.0000000000000D+00  0.0000000000000D+00
   391  3.9000000000000D+00  0.0000000000000D+00  0.0000000000000D+00
   392  3.9100000000000D+00  0.0000000000000D+00  0.0000000000000D+00
   393  3.9200000000000D+00  0.0000000000000D+00  0.0000000000000D+00
   394  3.9300000000000D+00  0.0000000000000D+00  0.0000000000000D+00
   395  3.9400000000000D+00  0.0000000000000D+00  0.0000000000000D+00
   396  3.9500000000000D+00  0.0000000000000D+00  0.0000000000000D+00
   397  3.9600000000000D+00  0.0000000000000D+00  0.0000000000000D+00
   398  3.9700000000000D+00  0.0000000000000D+00  0.0000000000000D+00
   399  3.9800000000000D+00  0.0000000000000D+00  0.0000000000000D+00
   400  3.9900000000000D+00  0.0000000000000D+00  0.0000000000000D+00
   401  4.0000000000000D+00  0.0000000000000D+00  0.0000000000000D+00
   402  4.0100000000000D+00  0.0000000000000D+00  0.0000000000000D+00
   403  4.0200000000000D+00  0.0000000000000D+00  0.0000000000000D+00
   404  4.0300000000000D+00  0.0000000000000D+00  0.0000000000000D+00
   405  4.0400000000000D+00  0.0000000000000D+00  0.0000000000000D+00
   406  4.0500000000000D+00  0.0000000000000D+00  0.0000000000000D+00
   407  4.0600000000000D+00  0.0000000000000D+00  0.0000000000000D+00
   408  4.0700000000000D+00  0.0000000000000D+00  0.0000000000000D+00
   409  4.0800000000000D+00  0.0000000000000D+00  0.0000000000000D+00
   410  4.0900000000000D+00  0.0000000000000D+00  0.0000000000000D+00
   411  4.1000000000000D+00  0.0000000000000D+00  0.0000000000000D+00
   412  4.1100000000000D+00  0.0000000000000D+00  0.0000000000000D+00
   413  4.1200000000000D+00  0.0000000000000D+00  0.0000000000000D+00
   414  4.1300000000000D+00  0.0000000000000D+00  0.0000000000000D+00
   415  4.1400000000000D+00  0.0000000000000D+00  0.0000000000000D+00
   416  4.1500000000000D+00  0.0000000000000D+00  0.0000000000000D+00
   417  4.1600000000000D+00  0.0000000000000D+00  0.0000000000000D+00
   418  4.1700000000000D+00  0.0000000000000D+00  0.0000000000000D+00
   419  4.1800000000000D+00  0.0000000000000D+00  0.0000000000000D+00
   420  4.1900000000000D+00  0.0000000000000D+00  0.0000000000000D+00
   421  4.2000000000000D+00  0.0000000000000D+00  0.0000000000000D+00
   422  4.2100000000000D+00  0.0000000000000D+00  0.0000000000000D+00