Ir    ONCVPSP-3.3.1  r_core=   2.29513   2.11127   2.29513   2.91352
     77.0000     17.0000      210904    zatom,zion,pspd
     8      11   3     4   600     0    pspcod,pspxc,lmax,lloc,mmax,r2well
  5.99000000  0.00000000  0.00000000    rchrg fchrg qchrg
     2     2     2     2     0    nproj
     1     1           extension_switch
   0                         6.9180649500033D+00  1.3854882241823D+00
     1  0.0000000000000D+00  7.9035111788528D-12 -2.3583773822722D-11
     2  1.0000000000000D-02  5.6527723306705D-02 -9.7428916752163D-03
     3  2.0000000000000D-02  1.1297302809563D-01 -1.9448065882979D-02
     4  3.0000000000000D-02  1.6925360649482D-01 -2.9077792932304D-02
     5  4.0000000000000D-02  2.2528737199563D-01 -3.8594319417705D-02
     6  5.0000000000000D-02  2.8099257031138D-01 -4.7959858187371D-02
     7  6.0000000000000D-02  3.3628789044290D-01 -5.7136580485104D-02
     8  7.0000000000000D-02  3.9109257601043D-01 -6.6086610962852D-02
     9  8.0000000000000D-02  4.4532653690381D-01 -7.4772026237091D-02
    10  9.0000000000000D-02  4.9891046129271D-01 -8.3154857633095D-02
    11  1.0000000000000D-01  5.5176592802749D-01 -9.1197098726585D-02
    12  1.1000000000000D-01  6.0381551944782D-01 -9.8860718252431D-02
    13  1.2000000000000D-01  6.5498293460140D-01 -1.0610767890533D-01
    14  1.3000000000000D-01  7.0519310285882D-01 -1.1289996250803D-01
    15  1.4000000000000D-01  7.5437229789303D-01 -1.1919960196904D-01
    16  1.5000000000000D-01  8.0244825197275D-01 -1.2496872039382D-01
    17  1.6000000000000D-01  8.4935027049953D-01 -1.3016957765261D-01
    18  1.7000000000000D-01  8.9500934669702D-01 -1.3476462464313D-01
    19  1.8000000000000D-01  9.3935827633964D-01 -1.3871656541944D-01
    20  1.9000000000000D-01  9.8233177238545D-01 -1.4198842728853D-01
    21  2.0000000000000D-01  1.0238665793558D+00 -1.4454363890485D-01
    22  2.1000000000000D-01  1.0639015872810D+00 -1.4634611631996D-01
    23  2.2000000000000D-01  1.1023779450095D+00 -1.4736035687110D-01
    24  2.3000000000000D-01  1.1392391726535D+00 -1.4755154071791D-01
    25  2.4000000000000D-01  1.1744312729253D+00 -1.4688563976266D-01
    26  2.5000000000000D-01  1.2079028410919D+00 -1.4532953361598D-01
    27  2.6000000000000D-01  1.2396051732594D+00 -1.4285113219752D-01
    28  2.7000000000000D-01  1.2694923726763D+00 -1.3941950449017D-01
    29  2.8000000000000D-01  1.2975214537258D+00 -1.3500501289806D-01
    30  2.9000000000000D-01  1.3236524432603D+00 -1.2957945259220D-01
    31  3.0000000000000D-01  1.3478484789165D+00 -1.2311619516454D-01
    32  3.1000000000000D-01  1.3700759040321D+00 -1.1559033585205D-01
    33  3.2000000000000D-01  1.3903043587761D+00 -1.0697884353631D-01
    34  3.3000000000000D-01  1.4085068670915D+00 -9.7260712673308D-02
    35  3.4000000000000D-01  1.4246599190422D+00 -8.6417116261449D-02
    36  3.5000000000000D-01  1.4387435481489D+00 -7.4431558914464D-02
    37  3.6000000000000D-01  1.4507414032961D+00 -6.1290029070084D-02
    38  3.7000000000000D-01  1.4606408147896D+00 -4.6981149335235D-02
    39  3.8000000000000D-01  1.4684328541455D+00 -3.1496323944412D-02
    40  3.9000000000000D-01  1.4741123871971D+00 -1.4829882290205D-02
    41  4.0000000000000D-01  1.4776781201095D+00  3.0207825264031D-03
    42  4.1000000000000D-01  1.4791326379041D+00  2.2055081182777D-02
    43  4.2000000000000D-01  1.4784824351053D+00  4.2269102713283D-02
    44  4.3000000000000D-01  1.4757379381367D+00  6.3655497225405D-02
    45  4.4000000000000D-01  1.4709135191124D+00  8.6203367783081D-02
    46  4.5000000000000D-01  1.4640275006889D+00  1.0989817246404D-01
    47  4.6000000000000D-01  1.4551021516645D+00  1.3472163756813D-01
    48  4.7000000000000D-01  1.4441636730418D+00  1.6065168291709D-01
    49  4.8000000000000D-01  1.4312421742936D+00  1.8766236014304D-01
    50  4.9000000000000D-01  1.4163716396058D+00  2.1572380481295D-01
    51  5.0000000000000D-01  1.3995898839006D+00  2.4480220318076D-01
    52  5.1000000000000D-01  1.3809384984832D+00  2.7485977429619D-01
    53  5.2000000000000D-01  1.3604627861854D+00  3.0585476813204D-01
    54  5.3000000000000D-01  1.3382116859259D+00  3.3774148031781D-01
    55  5.4000000000000D-01  1.3142376866422D+00  3.7047028398999D-01
    56  5.5000000000000D-01  1.2885967305934D+00  4.0398767918540D-01
    57  5.6000000000000D-01  1.2613481060775D+00  4.3823636011759D-01
    58  5.7000000000000D-01  1.2325543296494D+00  4.7315530058481D-01
    59  5.8000000000000D-01  1.2022810179734D+00  5.0867985766377D-01
    60  5.9000000000000D-01  1.1705967494885D+00  5.4474189374659D-01
    61  6.0000000000000D-01  1.1375729161122D+00  5.8126991687872D-01
    62  6.1000000000000D-01  1.1032835652561D+00  6.1818923925492D-01
    63  6.2000000000000D-01  1.0678052324711D+00  6.5542215362800D-01
    64  6.3000000000000D-01  1.0312167650886D+00  6.9288812728250D-01
    65  6.4000000000000D-01  9.9359913726834D-01  7.3050401312300D-01
    66  6.5000000000000D-01  9.5503525690941D-01  7.6818427732465D-01
    67  6.6000000000000D-01  9.1560976492369D-01  8.0584124289295D-01
    68  6.7000000000000D-01  8.7540882741462D-01  8.4338534838112D-01
    69  6.8000000000000D-01  8.3451992134388D-01  8.8072542091690D-01
    70  6.9000000000000D-01  7.9303161430811D-01  9.1776896259743D-01
    71  7.0000000000000D-01  7.5103333908438D-01  9.5442244922101D-01
    72  7.1000000000000D-01  7.0861516363753D-01  9.9059164023953D-01
    73  7.2000000000000D-01  6.6586755731461D-01  1.0261818987340D+00
    74  7.3000000000000D-01  6.2288115398055D-01  1.0610985201402D+00
    75  7.4000000000000D-01  5.7974651287541D-01  1.0952470683824D+00
    76  7.5000000000000D-01  5.3655387799667D-01  1.1285337180077D+00
    77  7.6000000000000D-01  4.9339293682949D-01  1.1608656008591D+00
    78  7.7000000000000D-01  4.5035257926429D-01  1.1921511557724D+00
    79  7.8000000000000D-01  4.0752065755345D-01  1.2223004797423D+00
    80  7.9000000000000D-01  3.6498374816785D-01  1.2512256789653D+00
    81  8.0000000000000D-01  3.2282691641906D-01  1.2788412181430D+00
    82  8.1000000000000D-01  2.8113348471413D-01  1.3050642664078D+00
    83  8.2000000000000D-01  2.3998480530704D-01  1.3298150382230D+00
    84  8.3000000000000D-01  1.9946003840431D-01  1.3530171276106D+00
    85  8.4000000000000D-01  1.5963593647129D-01  1.3745978340611D+00
    86  8.5000000000000D-01  1.2058663557094D-01  1.3944884784997D+00
    87  8.6000000000000D-01  8.2383454548340D-02  1.4126247077049D+00
    88  8.7000000000000D-01  4.5094702851243D-02  1.4289467856081D+00
    89  8.8000000000000D-01  8.7854977509286D-03  1.4433998699438D+00
    90  8.9000000000000D-01 -2.6482408302955D-02  1.4559342727695D+00
    91  9.0000000000000D-01 -6.0650789493366D-02  1.4665057034312D+00
    92  9.1000000000000D-01 -9.3665096949855D-02  1.4750754926144D+00
    93  9.2000000000000D-01 -1.2547459694330D-01  1.4816107961956D+00
    94  9.3000000000000D-01 -1.5603249638279D-01  1.4860847776858D+00
    95  9.4000000000000D-01 -1.8529605508274D-01  1.4884767681451D+00
    96  9.5000000000000D-01 -2.1322668431748D-01  1.4887724025408D+00
    97  9.6000000000000D-01 -2.3979003123263D-01  1.4869637316186D+00
    98  9.7000000000000D-01 -2.6495604873655D-01  1.4830493084613D+00
    99  9.8000000000000D-01 -2.8869905055092D-01  1.4770342490152D+00
   100  9.9000000000000D-01 -3.1099775115728D-01  1.4689302659809D+00
   101  1.0000000000000D+00 -3.3183529043590D-01  1.4587556755776D+00
   102  1.0100000000000D+00 -3.5119924285308D-01  1.4465353768120D+00
   103  1.0200000000000D+00 -3.6908161111420D-01  1.4323008030006D+00
   104  1.0300000000000D+00 -3.8547880426102D-01  1.4160898454210D+00
   105  1.0400000000000D+00 -4.0039160025576D-01  1.3979467490907D+00
   106  1.0500000000000D+00 -4.1382509315050D-01  1.3779219807896D+00
   107  1.0600000000000D+00 -4.2578862500857D-01  1.3560720695774D+00
   108  1.0700000000000D+00 -4.3629570280037D-01  1.3324594201687D+00
   109  1.0800000000000D+00 -4.4536390055650D-01  1.3071520996557D+00
   110  1.0900000000000D+00 -4.5301474712197D-01  1.2802235981879D+00
   111  1.1000000000000D+00 -4.5927359990382D-01  1.2517525643194D+00
   112  1.1100000000000D+00 -4.6416950506858D-01  1.2218225158655D+00
   113  1.1200000000000D+00 -4.6773504469148D-01  1.1905215272015D+00
   114  1.1300000000000D+00 -4.7000617141309D-01  1.1579418940501D+00
   115  1.1400000000000D+00 -4.7102203120077D-01  1.1241797768846D+00
   116  1.1500000000000D+00 -4.7082477486056D-01  1.0893348241783D+00
   117  1.1600000000000D+00 -4.6945935898552D-01  1.0535097768105D+00
   118  1.1700000000000D+00 -4.6697333706413D-01  1.0168100550175D+00
   119  1.1800000000000D+00 -4.6341664149971D-01  9.7934332933246D-01
   120  1.1900000000000D+00 -4.5884135733119D-01  9.4121907703907D-01
   121  1.2000000000000D+00 -4.5330148846654D-01  9.0254812570513D-01
   122  1.2100000000000D+00 -4.4685271726224D-01  8.6344218540800D-01
   123  1.2200000000000D+00 -4.3955215829843D-01  8.2401337129599D-01
   124  1.2300000000000D+00 -4.3145810721947D-01  7.8437371816934D-01
   125  1.2400000000000D+00 -4.2262978551168D-01  7.4463468876745D-01
   126  1.2500000000000D+00 -4.1312708209855D-01  7.0490667746596D-01
   127  1.2600000000000D+00 -4.0301029263755D-01  6.6529851109202D-01
   128  1.2700000000000D+00 -3.9233985739059D-01  6.2591694853921D-01
   129  1.2800000000000D+00 -3.8117609854440D-01  5.8686618087206D-01
   130  1.2900000000000D+00 -3.6957895783951D-01  5.4824733356947D-01
   131  1.3000000000000D+00 -3.5760773534065D-01  5.1015797250008D-01
   132  1.3100000000000D+00 -3.4532083018919D-01  4.7269161523998D-01
   133  1.3200000000000D+00 -3.3277548413061D-01  4.3593724923756D-01
   134  1.3300000000000D+00 -3.2002752857434D-01  3.9997885825576D-01
   135  1.3400000000000D+00 -3.0713113596848D-01  3.6489495857415D-01
   136  1.3500000000000D+00 -2.9413857616302D-01  3.3075814620053D-01
   137  1.3600000000000D+00 -2.8109997844303D-01  2.9763465635848D-01
   138  1.3700000000000D+00 -2.6806309989942D-01  2.6558393648790D-01
   139  1.3800000000000D+00 -2.5507309953613D-01  2.3465822951943D-01
   140  1.3900000000000D+00 -2.4217232646806D-01  2.0490219712191D-01
   141  1.4000000000000D+00 -2.2940009144534D-01  1.7635246987345D-01
   142  1.4100000000000D+00 -2.1679253612227D-01  1.4903753614967D-01
   143  1.4200000000000D+00 -2.0438229507256D-01  1.2297687064589D-01
   144  1.4300000000000D+00 -1.9219839236624D-01  9.8180886550679D-02
   145  1.4400000000000D+00 -1.8026673443640D-01  7.4653109692536D-02
   146  1.4500000000000D+00 -1.6861055320216D-01  5.2391980959406D-02
   147  1.4600000000000D+00 -1.5725104614415D-01  3.1393241443605D-02
   148  1.4700000000000D+00 -1.4620737315325D-01  1.1649898199029D-02
   149  1.4800000000000D+00 -1.3549658374824D-01 -6.8481248690795D-03
   150  1.4900000000000D+00 -1.2513371373849D-01 -2.4113671619547D-02
   151  1.5000000000000D+00 -1.1513180428205D-01 -4.0162355467576D-02
   152  1.5100000000000D+00 -1.0550195286583D-01 -5.5012446271879D-02
   153  1.5200000000000D+00 -9.6253361485133D-02 -6.8684776659353D-02
   154  1.5300000000000D+00 -8.7393390834034D-02 -8.1202633582774D-02
   155  1.5400000000000D+00 -7.8927618881947D-02 -9.2591640938885D-02
   156  1.5500000000000D+00 -7.0859903474479D-02 -1.0287963406218D-01
   157  1.5600000000000D+00 -6.3192448707886D-02 -1.1209652666518D-01
   158  1.5700000000000D+00 -5.5925874684685D-02 -1.2027417111454D-01
   159  1.5800000000000D+00 -4.9059290368564D-02 -1.2744621268461D-01
   160  1.5900000000000D+00 -4.2590369156508D-02 -1.3364793865219D-01
   161  1.6000000000000D+00 -3.6515426849473D-02 -1.3891612295628D-01
   162  1.6100000000000D+00 -3.0829501650420D-02 -1.4328886726180D-01
   163  1.6200000000000D+00 -2.5526435851921D-02 -1.4680543919137D-01
   164  1.6300000000000D+00 -2.0598958846474D-02 -1.4950610855395D-01
   165  1.6400000000000D+00 -1.6038771123253D-02 -1.5143198232565D-01
   166  1.6500000000000D+00 -1.1836628879502D-02 -1.5262483922440D-01
   167  1.6600000000000D+00 -7.9824289306425D-03 -1.5312696458072D-01
   168  1.6700000000000D+00 -4.4652935384506D-03 -1.5298098636691D-01
   169  1.6800000000000D+00 -1.2736548766367D-03 -1.5222971299906D-01
   170  1.6900000000000D+00  1.6046612583498D-03 -1.5091597380174D-01
   171  1.7000000000000D+00  4.1823527268414D-03 -1.4908246263920D-01
   172  1.7100000000000D+00  6.4725597137104D-03 -1.4677158561486D-01
   173  1.7200000000000D+00  8.4887849736075D-03 -1.4402531323090D-01
   174  1.7300000000000D+00  1.0244816045314D-02 -1.4088503789281D-01
   175  1.7400000000000D+00  1.1754649585527D-02 -1.3739143705679D-01
   176  1.7500000000000D+00  1.3032418186181D-02 -1.3358434283671D-01
   177  1.7600000000000D+00  1.4092319805846D-02 -1.2950261832171D-01
   178  1.7700000000000D+00  1.4948550118385D-02 -1.2518404127175D-01
   179  1.7800000000000D+00  1.5615237921070D-02 -1.2066519547128D-01
   180  1.7900000000000D+00  1.6106383802192D-02 -1.1598137015877D-01
   181  1.8000000000000D+00  1.6435802264962D-02 -1.1116646794409D-01
   182  1.8100000000000D+00  1.6617067351314D-02 -1.0625292125431D-01
   183  1.8200000000000D+00  1.6663462067832D-02 -1.0127161797279D-01
   184  1.8300000000000D+00  1.6587931446509D-02 -9.6251835806426D-02
   185  1.8400000000000D+00  1.6403039700437D-02 -9.1221186423697D-02
   186  1.8500000000000D+00  1.6120931052165D-02 -8.6205568288872D-02
   187  1.8600000000000D+00  1.5753294845260D-02 -8.1229129589555D-02
   188  1.8700000000000D+00  1.5311334380087D-02 -7.6314239869227D-02
   189  1.8800000000000D+00  1.4805740010564D-02 -7.1481471571477D-02
   190  1.8900000000000D+00  1.4246665966091D-02 -6.6749590128846D-02
   191  1.9000000000000D+00  1.3643711341484D-02 -6.2135553665175D-02
   192  1.9100000000000D+00  1.3005905120119D-02 -5.7654521968275D-02
   193  1.9200000000000D+00  1.2341694850469D-02 -5.3319873628496D-02
   194  1.9300000000000D+00  1.1658938811111D-02 -4.9143230742332D-02
   195  1.9400000000000D+00  1.0964901239948D-02 -4.5134490161333D-02
   196  1.9500000000000D+00  1.0266252787755D-02 -4.1301867213699D-02
   197  1.9600000000000D+00  9.5690741811071D-03 -3.7651946422233D-02
   198  1.9700000000000D+00  8.8788618407057D-03 -3.4189735362355D-02
   199  1.9800000000000D+00  8.2005363186854D-03 -3.0918724354396D-02
   200  1.9900000000000D+00  7.5384541510855D-03 -2.7840953654525D-02
   201  2.0000000000000D+00  6.8964231339120D-03 -2.4957088166725D-02
   202  2.0100000000000D+00  6.2777197913768D-03 -2.2266496329476D-02
   203  2.0200000000000D+00  5.6851085277622D-03 -1.9767331546780D-02
   204  2.0300000000000D+00  5.1208630053462D-03 -1.7456618006258D-02
   205  2.0400000000000D+00  4.5867895188926D-03 -1.5330340105073D-02
   206  2.0500000000000D+00  4.0842519441739D-03 -1.3383534424900D-02
   207  2.0600000000000D+00  3.6141980041221D-03 -1.1610383588689D-02
   208  2.0700000000000D+00  3.1771866720787D-03 -1.0004311477046D-02
   209  2.0800000000000D+00  2.7734164994152D-03 -8.5580793718494D-03
   210  2.0900000000000D+00  2.4027545534223D-03 -7.2638821046991D-03
   211  2.1000000000000D+00  2.0647658320170D-03 -6.1134439602374D-03
   212  2.1100000000000D+00  1.7587428741469D-03 -5.0981135893420D-03
   213  2.1200000000000D+00  1.4837352452862D-03 -4.2089570871141D-03
   214  2.1300000000000D+00  1.2385789744692D-03 -3.4368495202993D-03
   215  2.1400000000000D+00  1.0219252758672D-03 -2.7725631105109D-03
   216  2.1500000000000D+00  8.3226876561997D-04 -2.2068527006783D-03
   217  2.1600000000000D+00  6.6797482823552D-04 -1.7305376088307D-03
   218  2.1700000000000D+00  5.2730567785419D-04 -1.3345786901444D-03
   219  2.1800000000000D+00  4.0844558185402D-04 -1.0101518850881D-03
   220  2.1900000000000D+00  3.0952429254575D-04 -7.4871575987003D-04
   221  2.2000000000000D+00  2.2863906210170D-04 -5.4207405916123D-04
   222  2.2100000000000D+00  1.6387520112256D-04 -3.8243319267109D-04
   223  2.2200000000000D+00  1.1332412987765D-04 -2.6247725144685D-04
   224  2.2300000000000D+00  7.5100670104044D-05 -1.7533201833190D-04
   225  2.2400000000000D+00  4.7357321157286D-05 -1.1464176179825D-04
   226  2.2500000000000D+00  2.8241940043163D-05 -7.4368913395805D-05
   227  2.2600000000000D+00  1.6122308626921D-05 -5.0077139262205D-05
   228  2.2700000000000D+00  9.4235567537199D-06 -3.7786283186009D-05
   229  2.2800000000000D+00  6.5841861027013D-06 -3.3625525190273D-05
   230  2.2900000000000D+00  5.4585283427239D-06 -3.0954701196252D-05
   231  2.3000000000000D+00  4.2286813136464D-06 -2.4285833633920D-05
   232  2.3100000000000D+00  2.3164709049920D-06 -1.3192832332754D-05
   233  2.3200000000000D+00  4.2103040102646D-07 -2.3554686441398D-06
   234  2.3300000000000D+00 -4.3715506874934D-07  2.6029240722773D-06
   235  2.3400000000000D+00 -4.2131619736994D-07  2.5060859283207D-06
   236  2.3500000000000D+00 -2.4199055435352D-08  1.4363671039873D-07
   237  2.3600000000000D+00  9.7415168014506D-08 -6.0839987104358D-07
   238  2.3700000000000D+00  8.0648480197657D-08 -5.0595952701112D-07
   239  2.3800000000000D+00 -2.3153413216668D-09  1.3228577223828D-08
   240  2.3900000000000D+00 -1.3815776726785D-08  7.8935691954862D-08
   241  2.4000000000000D+00 -9.7500637484329D-09  5.5706461084772D-08
   242  2.4100000000000D+00  0.0000000000000D+00  0.0000000000000D+00
   243  2.4200000000000D+00  0.0000000000000D+00  0.0000000000000D+00
   244  2.4300000000000D+00  0.0000000000000D+00  0.0000000000000D+00
   245  2.4400000000000D+00  0.0000000000000D+00  0.0000000000000D+00
   246  2.4500000000000D+00  0.0000000000000D+00  0.0000000000000D+00
   247  2.4600000000000D+00  0.0000000000000D+00  0.0000000000000D+00
   248  2.4700000000000D+00  0.0000000000000D+00  0.0000000000000D+00
   249  2.4800000000000D+00  0.0000000000000D+00  0.0000000000000D+00
   250  2.4900000000000D+00  0.0000000000000D+00  0.0000000000000D+00
   251  2.5000000000000D+00  0.0000000000000D+00  0.0000000000000D+00
   252  2.5100000000000D+00  0.0000000000000D+00  0.0000000000000D+00
   253  2.5200000000000D+00  0.0000000000000D+00  0.0000000000000D+00
   254  2.5300000000000D+00  0.0000000000000D+00  0.0000000000000D+00
   255  2.5400000000000D+00  0.0000000000000D+00  0.0000000000000D+00
   256  2.5500000000000D+00  0.0000000000000D+00  0.0000000000000D+00
   257  2.5600000000000D+00  0.0000000000000D+00  0.0000000000000D+00
   258  2.5700000000000D+00  0.0000000000000D+00  0.0000000000000D+00
   259  2.5800000000000D+00  0.0000000000000D+00  0.0000000000000D+00
   260  2.5900000000000D+00  0.0000000000000D+00  0.0000000000000D+00
   261  2.6000000000000D+00  0.0000000000000D+00  0.0000000000000D+00
   262  2.6100000000000D+00  0.0000000000000D+00  0.0000000000000D+00
   263  2.6200000000000D+00  0.0000000000000D+00  0.0000000000000D+00
   264  2.6300000000000D+00  0.0000000000000D+00  0.0000000000000D+00
   265  2.6400000000000D+00  0.0000000000000D+00  0.0000000000000D+00
   266  2.6500000000000D+00  0.0000000000000D+00  0.0000000000000D+00
   267  2.6600000000000D+00  0.0000000000000D+00  0.0000000000000D+00
   268  2.6700000000000D+00  0.0000000000000D+00  0.0000000000000D+00
   269  2.6800000000000D+00  0.0000000000000D+00  0.0000000000000D+00
   270  2.6900000000000D+00  0.0000000000000D+00  0.0000000000000D+00
   271  2.7000000000000D+00  0.0000000000000D+00  0.0000000000000D+00
   272  2.7100000000000D+00  0.0000000000000D+00  0.0000000000000D+00
   273  2.7200000000000D+00  0.0000000000000D+00  0.0000000000000D+00
   274  2.7300000000000D+00  0.0000000000000D+00  0.0000000000000D+00
   275  2.7400000000000D+00  0.0000000000000D+00  0.0000000000000D+00
   276  2.7500000000000D+00  0.0000000000000D+00  0.0000000000000D+00
   277  2.7600000000000D+00  0.0000000000000D+00  0.0000000000000D+00
   278  2.7700000000000D+00  0.0000000000000D+00  0.0000000000000D+00
   279  2.7800000000000D+00  0.0000000000000D+00  0.0000000000000D+00
   280  2.7900000000000D+00  0.0000000000000D+00  0.0000000000000D+00
   281  2.8000000000000D+00  0.0000000000000D+00  0.0000000000000D+00
   282  2.8100000000000D+00  0.0000000000000D+00  0.0000000000000D+00
   283  2.8200000000000D+00  0.0000000000000D+00  0.0000000000000D+00
   284  2.8300000000000D+00  0.0000000000000D+00  0.0000000000000D+00
   285  2.8400000000000D+00  0.0000000000000D+00  0.0000000000000D+00
   286  2.8500000000000D+00  0.0000000000000D+00  0.0000000000000D+00
   287  2.8600000000000D+00  0.0000000000000D+00  0.0000000000000D+00
   288  2.8700000000000D+00  0.0000000000000D+00  0.0000000000000D+00
   289  2.8800000000000D+00  0.0000000000000D+00  0.0000000000000D+00
   290  2.8900000000000D+00  0.0000000000000D+00  0.0000000000000D+00
   291  2.9000000000000D+00  0.0000000000000D+00  0.0000000000000D+00
   292  2.9100000000000D+00  0.0000000000000D+00  0.0000000000000D+00
   293  2.9200000000000D+00  0.0000000000000D+00  0.0000000000000D+00
   294  2.9300000000000D+00  0.0000000000000D+00  0.0000000000000D+00
   295  2.9400000000000D+00  0.0000000000000D+00  0.0000000000000D+00
   296  2.9500000000000D+00  0.0000000000000D+00  0.0000000000000D+00
   297  2.9600000000000D+00  0.0000000000000D+00  0.0000000000000D+00
   298  2.9700000000000D+00  0.0000000000000D+00  0.0000000000000D+00
   299  2.9800000000000D+00  0.0000000000000D+00  0.0000000000000D+00
   300  2.9900000000000D+00  0.0000000000000D+00  0.0000000000000D+00
   301  3.0000000000000D+00  0.0000000000000D+00  0.0000000000000D+00
   302  3.0100000000000D+00  0.0000000000000D+00  0.0000000000000D+00
   303  3.0200000000000D+00  0.0000000000000D+00  0.0000000000000D+00
   304  3.0300000000000D+00  0.0000000000000D+00  0.0000000000000D+00
   305  3.0400000000000D+00  0.0000000000000D+00  0.0000000000000D+00
   306  3.0500000000000D+00  0.0000000000000D+00  0.0000000000000D+00
   307  3.0600000000000D+00  0.0000000000000D+00  0.0000000000000D+00
   308  3.0700000000000D+00  0.0000000000000D+00  0.0000000000000D+00
   309  3.0800000000000D+00  0.0000000000000D+00  0.0000000000000D+00
   310  3.0900000000000D+00  0.0000000000000D+00  0.0000000000000D+00
   311  3.1000000000000D+00  0.0000000000000D+00  0.0000000000000D+00
   312  3.1100000000000D+00  0.0000000000000D+00  0.0000000000000D+00
   313  3.1200000000000D+00  0.0000000000000D+00  0.0000000000000D+00
   314  3.1300000000000D+00  0.0000000000000D+00  0.0000000000000D+00
   315  3.1400000000000D+00  0.0000000000000D+00  0.0000000000000D+00
   316  3.1500000000000D+00  0.0000000000000D+00  0.0000000000000D+00
   317  3.1600000000000D+00  0.0000000000000D+00  0.0000000000000D+00
   318  3.1700000000000D+00  0.0000000000000D+00  0.0000000000000D+00
   319  3.1800000000000D+00  0.0000000000000D+00  0.0000000000000D+00
   320  3.1900000000000D+00  0.0000000000000D+00  0.0000000000000D+00
   321  3.2000000000000D+00  0.0000000000000D+00  0.0000000000000D+00
   322  3.2100000000000D+00  0.0000000000000D+00  0.0000000000000D+00
   323  3.2200000000000D+00  0.0000000000000D+00  0.0000000000000D+00
   324  3.2300000000000D+00  0.0000000000000D+00  0.0000000000000D+00
   325  3.2400000000000D+00  0.0000000000000D+00  0.0000000000000D+00
   326  3.2500000000000D+00  0.0000000000000D+00  0.0000000000000D+00
   327  3.2600000000000D+00  0.0000000000000D+00  0.0000000000000D+00
   328  3.2700000000000D+00  0.0000000000000D+00  0.0000000000000D+00
   329  3.2800000000000D+00  0.0000000000000D+00  0.0000000000000D+00
   330  3.2900000000000D+00  0.0000000000000D+00  0.0000000000000D+00
   331  3.3000000000000D+00  0.0000000000000D+00  0.0000000000000D+00
   332  3.3100000000000D+00  0.0000000000000D+00  0.0000000000000D+00
   333  3.3200000000000D+00  0.0000000000000D+00  0.0000000000000D+00
   334  3.3300000000000D+00  0.0000000000000D+00  0.0000000000000D+00
   335  3.3400000000000D+00  0.0000000000000D+00  0.0000000000000D+00
   336  3.3500000000000D+00  0.0000000000000D+00  0.0000000000000D+00
   337  3.3600000000000D+00  0.0000000000000D+00  0.0000000000000D+00
   338  3.3700000000000D+00  0.0000000000000D+00  0.0000000000000D+00
   339  3.3800000000000D+00  0.0000000000000D+00  0.0000000000000D+00
   340  3.3900000000000D+00  0.0000000000000D+00  0.0000000000000D+00
   341  3.4000000000000D+00  0.0000000000000D+00  0.0000000000000D+00
   342  3.4100000000000D+00  0.0000000000000D+00  0.0000000000000D+00
   343  3.4200000000000D+00  0.0000000000000D+00  0.0000000000000D+00
   344  3.4300000000000D+00  0.0000000000000D+00  0.0000000000000D+00
   345  3.4400000000000D+00  0.0000000000000D+00  0.0000000000000D+00
   346  3.4500000000000D+00  0.0000000000000D+00  0.0000000000000D+00
   347  3.4600000000000D+00  0.0000000000000D+00  0.0000000000000D+00
   348  3.4700000000000D+00  0.0000000000000D+00  0.0000000000000D+00
   349  3.4800000000000D+00  0.0000000000000D+00  0.0000000000000D+00
   350  3.4900000000000D+00  0.0000000000000D+00  0.0000000000000D+00
   351  3.5000000000000D+00  0.0000000000000D+00  0.0000000000000D+00
   352  3.5100000000000D+00  0.0000000000000D+00  0.0000000000000D+00
   353  3.5200000000000D+00  0.0000000000000D+00  0.0000000000000D+00
   354  3.5300000000000D+00  0.0000000000000D+00  0.0000000000000D+00
   355  3.5400000000000D+00  0.0000000000000D+00  0.0000000000000D+00
   356  3.5500000000000D+00  0.0000000000000D+00  0.0000000000000D+00
   357  3.5600000000000D+00  0.0000000000000D+00  0.0000000000000D+00
   358  3.5700000000000D+00  0.0000000000000D+00  0.0000000000000D+00
   359  3.5800000000000D+00  0.0000000000000D+00  0.0000000000000D+00
   360  3.5900000000000D+00  0.0000000000000D+00  0.0000000000000D+00
   361  3.6000000000000D+00  0.0000000000000D+00  0.0000000000000D+00
   362  3.6100000000000D+00  0.0000000000000D+00  0.0000000000000D+00
   363  3.6200000000000D+00  0.0000000000000D+00  0.0000000000000D+00
   364  3.6300000000000D+00  0.0000000000000D+00  0.0000000000000D+00
   365  3.6400000000000D+00  0.0000000000000D+00  0.0000000000000D+00
   366  3.6500000000000D+00  0.0000000000000D+00  0.0000000000000D+00
   367  3.6600000000000D+00  0.0000000000000D+00  0.0000000000000D+00
   368  3.6700000000000D+00  0.0000000000000D+00  0.0000000000000D+00
   369  3.6800000000000D+00  0.0000000000000D+00  0.0000000000000D+00
   370  3.6900000000000D+00  0.0000000000000D+00  0.0000000000000D+00
   371  3.7000000000000D+00  0.0000000000000D+00  0.0000000000000D+00
   372  3.7100000000000D+00  0.0000000000000D+00  0.0000000000000D+00
   373  3.7200000000000D+00  0.0000000000000D+00  0.0000000000000D+00
   374  3.7300000000000D+00  0.0000000000000D+00  0.0000000000000D+00
   375  3.7400000000000D+00  0.0000000000000D+00  0.0000000000000D+00
   376  3.7500000000000D+00  0.0000000000000D+00  0.0000000000000D+00
   377  3.7600000000000D+00  0.0000000000000D+00  0.0000000000000D+00
   378  3.7700000000000D+00  0.0000000000000D+00  0.0000000000000D+00
   379  3.7800000000000D+00  0.0000000000000D+00  0.0000000000000D+00
   380  3.7900000000000D+00  0.0000000000000D+00  0.0000000000000D+00
   381  3.8000000000000D+00  0.0000000000000D+00  0.0000000000000D+00
   382  3.8100000000000D+00  0.0000000000000D+00  0.0000000000000D+00
   383  3.8200000000000D+00  0.0000000000000D+00  0.0000000000000D+00
   384  3.8300000000000D+00  0.0000000000000D+00  0.0000000000000D+00
   385  3.8400000000000D+00  0.0000000000000D+00  0.0000000000000D+00
   386  3.8500000000000D+00  0.0000000000000D+00  0.0000000000000D+00
   387  3.8600000000000D+00  0.0000000000000D+00  0.0000000000000D+00
   388  3.8700000000000D+00  0.0000000000000D+00  0.0000000000000D+00
   389  3.8800000000000D+00  0.0000000000000D+00  0.0000000000000D+00
   390  3.8900000000000D+00  0.0000000000000D+00  0.0000000000000D+00
   391  3.9000000000000D+00  0.0000000000000D+00  0.0000000000000D+00
   392  3.9100000000000D+00  0.0000000000000D+00  0.0000000000000D+00
   393  3.9200000000000D+00  0.0000000000000D+00  0.0000000000000D+00
   394  3.9300000000000D+00  0.0000000000000D+00  0.0000000000000D+00
   395  3.9400000000000D+00  0.0000000000000D+00  0.0000000000000D+00
   396  3.9500000000000D+00  0.0000000000000D+00  0.0000000000000D+00
   397  3.9600000000000D+00  0.0000000000000D+00  0.0000000000000D+00
   398  3.9700000000000D+00  0.0000000000000D+00  0.0000000000000D+00
   399  3.9800000000000D+00  0.0000000000000D+00  0.0000000000000D+00
   400  3.9900000000000D+00  0.0000000000000D+00  0.0000000000000D+00
   401  4.0000000000000D+00  0.0000000000000D+00  0.0000000000000D+00
   402  4.0100000000000D+00  0.0000000000000D+00  0.0000000000000D+00
   403  4.0200000000000D+00  0.0000000000000D+00  0.0000000000000D+00
   404  4.0300000000000D+00  0.0000000000000D+00  0.0000000000000D+00
   405  4.0400000000000D+00  0.0000000000000D+00  0.0000000000000D+00
   406  4.0500000000000D+00  0.0000000000000D+00  0.0000000000000D+00
   407  4.0600000000000D+00  0.0000000000000D+00  0.0000000000000D+00
   408  4.0700000000000D+00  0.0000000000000D+00  0.0000000000000D+00
   409  4.0800000000000D+00  0.0000000000000D+00  0.0000000000000D+00
   410  4.0900000000000D+00  0.0000000000000D+00  0.0000000000000D+00
   411  4.1000000000000D+00  0.0000000000000D+00  0.0000000000000D+00
   412  4.1100000000000D+00  0.0000000000000D+00  0.0000000000000D+00
   413  4.1200000000000D+00  0.0000000000000D+00  0.0000000000000D+00
   414  4.1300000000000D+00  0.0000000000000D+00  0.0000000000000D+00
   415  4.1400000000000D+00  0.0000000000000D+00  0.0000000000000D+00
   416  4.1500000000000D+00  0.0000000000000D+00  0.0000000000000D+00
   417  4.1600000000000D+00  0.0000000000000D+00  0.0000000000000D+00
   418  4.1700000000000D+00  0.0000000000000D+00  0.0000000000000D+00
   419  4.1800000000000D+00  0.0000000000000D+00  0.0000000000000D+00
   420  4.1900000000000D+00  0.0000000000000D+00  0.0000000000000D+00
   421  4.2000000000000D+00  0.0000000000000D+00  0.0000000000000D+00
   422  4.2100000000000D+00  0.0000000000000D+00  0.0000000000000D+00