Kr    ONCVPSP-3.3.1  r_core=   2.83591   2.86994   2.86994
     36.0000      8.0000      210904    zatom,zion,pspd
     8      11   2     4   600     0    pspcod,pspxc,lmax,lloc,mmax,r2well
  5.99000000  0.00000000  0.00000000    rchrg fchrg qchrg
     2     4     2     0    nproj
     3     1           extension_switch
     4     3     0    nprojso
   0                        -8.4472746382041D-02  2.0918146810683D+00
     1  0.0000000000000D+00  1.5108747586368D-12 -1.4643841694806D-13
     2  1.0000000000000D-02  1.8612254799627D-02  3.8518438514791D-02
     3  2.0000000000000D-02  3.7196643025480D-02  7.7000885770407D-02
     4  3.0000000000000D-02  5.5725333165858D-02  1.1541139123085D-01
     5  4.0000000000000D-02  7.4170563853095D-02  1.5371408575980D-01
     6  5.0000000000000D-02  9.2504678984900D-02  1.9187322220372D-01
     7  6.0000000000000D-02  1.1070016290379D-01  2.2985321583509D-01
     8  7.0000000000000D-02  1.2872967565219D-01  2.6761868460921D-01
     9  8.0000000000000D-02  1.4656608831913D-01  3.0513448918816D-01
    10  9.0000000000000D-02  1.6418251849279D-01  3.4236577268600D-01
    11  1.0000000000000D-01  1.8155236583052D-01  3.7927800008893D-01
    12  1.1000000000000D-01  1.9864934775574D-01  4.1583699730493D-01
    13  1.2000000000000D-01  2.1544753528777D-01  4.5200898979742D-01
    14  1.3000000000000D-01  2.3192138900777D-01  4.8776064075776D-01
    15  1.4000000000000D-01  2.4804579516005D-01  5.2305908877190D-01
    16  1.5000000000000D-01  2.6379610188438D-01  5.5787198493687D-01
    17  1.6000000000000D-01  2.7914815557073D-01  5.9216752938317D-01
    18  1.7000000000000D-01  2.9407833732358D-01  6.2591450715955D-01
    19  1.8000000000000D-01  3.0856359951826D-01  6.5908232343751D-01
    20  1.9000000000000D-01  3.2258150242722D-01  6.9164103799286D-01
    21  2.0000000000000D-01  3.3611025088905D-01  7.2356139892287D-01
    22  2.1000000000000D-01  3.4912873098815D-01  7.5481487555775D-01
    23  2.2000000000000D-01  3.6161654670767D-01  7.8537369052606D-01
    24  2.3000000000000D-01  3.7355405651338D-01  8.1521085093447D-01
    25  2.4000000000000D-01  3.8492240982042D-01  8.4430017862290D-01
    26  2.5000000000000D-01  3.9570358329027D-01  8.7261633945697D-01
    27  2.6000000000000D-01  4.0588041689912D-01  9.0013487162057D-01
    28  2.7000000000000D-01  4.1543664971468D-01  9.2683221287233D-01
    29  2.8000000000000D-01  4.2435695531228D-01  9.5268572673065D-01
    30  2.9000000000000D-01  4.3262697675691D-01  9.7767372755292D-01
    31  3.0000000000000D-01  4.4023336107261D-01  1.0017755044759D+00
    32  3.1000000000000D-01  4.4716379311580D-01  1.0249713441852D+00
    33  3.2000000000000D-01  4.5340702876516D-01  1.0472425524821D+00
    34  3.3000000000000D-01  4.5895292733573D-01  1.0685714746200D+00
    35  3.4000000000000D-01  4.6379248312166D-01  1.0889415143793D+00
    36  3.5000000000000D-01  4.6791785596766D-01  1.1083371518562D+00
    37  3.6000000000000D-01  4.7132240076643D-01  1.1267439599380D+00
    38  3.7000000000000D-01  4.7400069577602D-01  1.1441486194411D+00
    39  3.8000000000000D-01  4.7594856964840D-01  1.1605389328892D+00
    40  3.9000000000000D-01  4.7716312705869D-01  1.1759038369100D+00
    41  4.0000000000000D-01  4.7764277282226D-01  1.1902334132304D+00
    42  4.1000000000000D-01  4.7738723438579D-01  1.2035188982529D+00
    43  4.2000000000000D-01  4.7639758257762D-01  1.2157526911959D+00
    44  4.3000000000000D-01  4.7467625050205D-01  1.2269283607838D+00
    45  4.4000000000000D-01  4.7222705046257D-01  1.2370406504734D+00
    46  4.5000000000000D-01  4.6905518879975D-01  1.2460854822062D+00
    47  4.6000000000000D-01  4.6516727853025D-01  1.2540599586761D+00
    48  4.7000000000000D-01  4.6057134967571D-01  1.2609623641066D+00
    49  4.8000000000000D-01  4.5527685717204D-01  1.2667921635308D+00
    50  4.9000000000000D-01  4.4929468625267D-01  1.2715500005707D+00
    51  5.0000000000000D-01  4.4263715520281D-01  1.2752376937159D+00
    52  5.1000000000000D-01  4.3531801538532D-01  1.2778582311000D+00
    53  5.2000000000000D-01  4.2735244844373D-01  1.2794157637785D+00
    54  5.3000000000000D-01  4.1875706059254D-01  1.2799155975130D+00
    55  5.4000000000000D-01  4.0954987391096D-01  1.2793641830687D+00
    56  5.5000000000000D-01  3.9975031456202D-01  1.2777691050322D+00
    57  5.6000000000000D-01  3.8937919786566D-01  1.2751390691640D+00
    58  5.7000000000000D-01  3.7845871016199D-01  1.2714838882959D+00
    59  5.8000000000000D-01  3.6701238740780D-01  1.2668144667908D+00
    60  5.9000000000000D-01  3.5506509045833D-01  1.2611427835814D+00
    61  6.0000000000000D-01  3.4264297699438D-01  1.2544818738083D+00
    62  6.1000000000000D-01  3.2977347006394D-01  1.2468458090792D+00
    63  6.2000000000000D-01  3.1648522321722D-01  1.2382496763736D+00
    64  6.3000000000000D-01  3.0280808222341D-01  1.2287095556195D+00
    65  6.4000000000000D-01  2.8877304336786D-01  1.2182424959706D+00
    66  6.5000000000000D-01  2.7441220833886D-01  1.2068664908140D+00
    67  6.6000000000000D-01  2.5975873572379D-01  1.1946004515433D+00
    68  6.7000000000000D-01  2.4484678914564D-01  1.1814641801296D+00
    69  6.8000000000000D-01  2.2971148208196D-01  1.1674783405290D+00
    70  6.9000000000000D-01  2.1438881941971D-01  1.1526644289653D+00
    71  7.0000000000000D-01  1.9891563581111D-01  1.1370447431289D+00
    72  7.1000000000000D-01  1.8332953090710D-01  1.1206423503350D+00
    73  7.2000000000000D-01  1.6766880155672D-01  1.1034810546856D+00
    74  7.3000000000000D-01  1.5197237107238D-01  1.0855853632829D+00
    75  7.4000000000000D-01  1.3627971567275D-01  1.0669804515420D+00
    76  7.5000000000000D-01  1.2063078822623D-01  1.0476921276529D+00
    77  7.6000000000000D-01  1.0506593942988D-01  1.0277467962448D+00
    78  7.7000000000000D-01  8.9625836569382D-02  1.0071714213051D+00
    79  7.8000000000000D-01  7.4351380017060D-02  9.8599348840827D-01
    80  7.9000000000000D-01  5.9283617635596D-02  9.6424096631179D-01
    81  8.0000000000000D-01  4.4463657265443D-02  9.4194226797570D-01
    82  8.1000000000000D-01  2.9932577484143D-02  9.1912621106565D-01
    83  8.2000000000000D-01  1.5731336835492D-02  8.9582197799914D-01
    84  8.3000000000000D-01  1.9006817354920D-03  8.7205907559603D-01
    85  8.4000000000000D-01 -1.1518946728820D-02  8.4786729439569D-01
    86  8.5000000000000D-01 -2.4487506883751D-02  8.2327666770346D-01
    87  8.6000000000000D-01 -3.6965451204736D-02  7.9831743043014D-01
    88  8.7000000000000D-01 -4.8913821464609D-02  7.7301997778881D-01
    89  8.8000000000000D-01 -6.0294344049377D-02  7.4741482391363D-01
    90  8.9000000000000D-01 -7.1069525190384D-02  7.2153256046584D-01
    91  9.0000000000000D-01 -8.1202745857037D-02  6.9540381529223D-01
    92  9.1000000000000D-01 -9.0658356049923D-02  6.6905921120169D-01
    93  9.2000000000000D-01 -9.9401768230632D-02  6.4252932492532D-01
    94  9.3000000000000D-01 -1.0739954962197D-01  6.1584464632550D-01
    95  9.4000000000000D-01 -1.1461951311044D-01  5.8903553791906D-01
    96  9.5000000000000D-01 -1.2103080648174D-01  5.6213219477940D-01
    97  9.6000000000000D-01 -1.2660399972003D-01  5.3516460488178D-01
    98  9.7000000000000D-01 -1.3131117010250D-01  5.0816250995542D-01
    99  9.8000000000000D-01 -1.3512598482213D-01  4.8115536690543D-01
   100  9.9000000000000D-01 -1.3802378087463D-01  4.5417230986633D-01
   101  1.0000000000000D+00 -1.3998164194839D-01  4.2724211294846D-01
   102  1.0100000000000D+00 -1.4097847206118D-01  4.0039315373676D-01
   103  1.0200000000000D+00 -1.4099506569230D-01  3.7365337760079D-01
   104  1.0300000000000D+00 -1.4001417416526D-01  3.4705026287302D-01
   105  1.0400000000000D+00 -1.3802056804316D-01  3.2061078695095D-01
   106  1.0500000000000D+00 -1.3500109530696D-01  2.9436139337728D-01
   107  1.0600000000000D+00 -1.3094473509581D-01  2.6832795995018D-01
   108  1.0700000000000D+00 -1.2584264679778D-01  2.4253576791418D-01
   109  1.0800000000000D+00 -1.1968821429111D-01  2.1700947227998D-01
   110  1.0900000000000D+00 -1.1247708514625D-01  1.9177307331958D-01
   111  1.1000000000000D+00 -1.0420720461250D-01  1.6684988928068D-01
   112  1.1100000000000D+00 -9.4878844224363D-02  1.4226253036241D-01
   113  1.1200000000000D+00 -8.4494624877894D-02  1.1803287399163D-01
   114  1.1300000000000D+00 -7.3059534241097D-02  9.4182041436870D-02
   115  1.1400000000000D+00 -6.0580938378210D-02  7.0730375794201D-02
   116  1.1500000000000D+00 -4.7068587481857D-02  4.7697421376842D-02
   117  1.1600000000000D+00 -3.2534615624078D-02  2.5101904537705D-02
   118  1.1700000000000D+00 -1.6993534454654D-02  2.9617159509556D-03
   119  1.1800000000000D+00 -4.6222079329052D-04 -1.8706105624187D-02
   120  1.1900000000000D+00  1.7040101925297D-02 -3.9885388076301D-02
   121  1.2000000000000D+00  3.5491888370173D-02 -6.0560839154088D-02
   122  1.2100000000000D+00  5.4869302197508D-02 -8.0718058143638D-02
   123  1.2200000000000D+00  7.5146253081081D-02 -1.0034354599903D-01
   124  1.2300000000000D+00  9.6294439856993D-02 -1.1942471391718D-01
   125  1.2400000000000D+00  1.1828339972343D-01 -1.3794989035226D-01
   126  1.2500000000000D+00  1.4108056342000D-01 -1.5590832646730D-01
   127  1.2600000000000D+00  1.6465131630241D-01 -1.7329020002263D-01
   128  1.2700000000000D+00  1.8895906519253D-01 -1.9008661770597D-01
   129  1.2800000000000D+00  2.1396531087189D-01 -2.0628961591149D-01
   130  1.2900000000000D+00  2.3962972608177D-01 -2.2189215997581D-01
   131  1.3000000000000D+00  2.6591023885077D-01 -2.3688814188571D-01
   132  1.3100000000000D+00  2.9276312096547D-01 -2.5127237647366D-01
   133  1.3200000000000D+00  3.2014308139400D-01 -2.6504059611788D-01
   134  1.3300000000000D+00  3.4800336442794D-01 -2.7818944397138D-01
   135  1.3400000000000D+00  3.7629585231249D-01 -2.9071646574373D-01
   136  1.3500000000000D+00  4.0497117212065D-01 -3.0262010006172D-01
   137  1.3600000000000D+00  4.3397880658826D-01 -3.1389966744193D-01
   138  1.3700000000000D+00  4.6326720864269D-01 -3.2455535790566D-01
   139  1.3800000000000D+00  4.9278391932563D-01 -3.3458821727230D-01
   140  1.3900000000000D+00  5.2247568879086D-01 -3.4400013217123D-01
   141  1.4000000000000D+00  5.5228860007808D-01 -3.5279381380849D-01
   142  1.4100000000000D+00  5.8216819530852D-01 -3.6097278053513D-01
   143  1.4200000000000D+00  6.1205960397366D-01 -3.6854133925989D-01
   144  1.4300000000000D+00  6.4190767296569D-01 -3.7550456575243D-01
   145  1.4400000000000D+00  6.7165709797907D-01 -3.8186828388961D-01
   146  1.4500000000000D+00  7.0125255593461D-01 -3.8763904389033D-01
   147  1.4600000000000D+00  7.3063883803602D-01 -3.9282409959658D-01
   148  1.4700000000000D+00  7.5976098309480D-01 -3.9743138485133D-01
   149  1.4800000000000D+00  7.8856441073540D-01 -4.0146948902992D-01
   150  1.4900000000000D+00  8.1699505410205D-01 -4.0494763178294D-01
   151  1.5000000000000D+00  8.4499949167885D-01 -4.0787563704578D-01
   152  1.5100000000000D+00  8.7252507784579D-01 -4.1026390637776D-01
   153  1.5200000000000D+00  8.9952007177852D-01 -4.1212339168682D-01
   154  1.5300000000000D+00  9.2593376432262D-01 -4.1346556740397D-01
   155  1.5400000000000D+00  9.5171660245802D-01 -4.1430240216626D-01
   156  1.5500000000000D+00  9.7682031098451D-01 -4.1464633007158D-01
   157  1.5600000000000D+00  1.0011980110726D+00 -4.1451022156650D-01
   158  1.5700000000000D+00  1.0248043352999D+00 -4.1390735403003D-01
   159  1.5800000000000D+00  1.0475955388659D+00 -4.1285138211439D-01
   160  1.5900000000000D+00  1.0695296065853D+00 -4.1135630790687D-01
   161  1.6000000000000D+00  1.0905663554202D+00 -4.0943645097120D-01
   162  1.6100000000000D+00  1.1106675321236D+00 -4.0710641833464D-01
   163  1.6200000000000D+00  1.1297969058327D+00 -4.0438107447476D-01
   164  1.6300000000000D+00  1.1479203551663D+00 -4.0127551137445D-01
   165  1.6400000000000D+00  1.1650059497292D+00 -3.9780501869415D-01
   166  1.6500000000000D+00  1.1810240255903D+00 -3.9398505413055D-01
   167  1.6600000000000D+00  1.1959472546824D+00 -3.8983121400679D-01
   168  1.6700000000000D+00  1.2097507077182D+00 -3.8535920416240D-01
   169  1.6800000000000D+00  1.2224119106174D+00 -3.8058481118386D-01
   170  1.6900000000000D+00  1.2339108940669D+00 -3.7552387404301D-01
   171  1.7000000000000D+00  1.2442302362679D+00 -3.7019225617841D-01
   172  1.7100000000000D+00  1.2533550985083D+00 -3.6460581808703D-01
   173  1.7200000000000D+00  1.2612732536913D+00 -3.5878039045335D-01
   174  1.7300000000000D+00  1.2679751074613D+00 -3.5273174788472D-01
   175  1.7400000000000D+00  1.2734537121562D+00 -3.4647558326982D-01
   176  1.7500000000000D+00  1.2777047732061D+00 -3.4002748283253D-01
   177  1.7600000000000D+00  1.2807266483390D+00 -3.3340290188433D-01
   178  1.7700000000000D+00  1.2825203391590D+00 -3.2661714135446D-01
   179  1.7800000000000D+00  1.2830894756185D+00 -3.1968532508316D-01
   180  1.7900000000000D+00  1.2824402928908D+00 -3.1262237796573D-01
   181  1.8000000000000D+00  1.2805816012825D+00 -3.0544300491788D-01
   182  1.8100000000000D+00  1.2775247487304D+00 -2.9816167074903D-01
   183  1.8200000000000D+00  1.2732835765149D+00 -2.9079258091190D-01
   184  1.8300000000000D+00  1.2678743678889D+00 -2.8334966320100D-01
   185  1.8400000000000D+00  1.2613157901488D+00 -2.7584655037759D-01
   186  1.8500000000000D+00  1.2536288300815D+00 -2.6829656376909D-01
   187  1.8600000000000D+00  1.2448367231338D+00 -2.6071269783973D-01
   188  1.8700000000000D+00  1.2349648765342D+00 -2.5310760574582D-01
   189  1.8800000000000D+00  1.2240407864798D+00 -2.4549358590151D-01
   190  1.8900000000000D+00  1.2120939499456D+00 -2.3788256952479D-01
   191  1.9000000000000D+00  1.1991557709861D+00 -2.3028610922526D-01
   192  1.9100000000000D+00  1.1852594623657D+00 -2.2271536855952D-01
   193  1.9200000000000D+00  1.1704399422729D+00 -2.1518111263912D-01
   194  1.9300000000000D+00  1.1547337269802D+00 -2.0769369970540D-01
   195  1.9400000000000D+00  1.1381788194212D+00 -2.0026307373009D-01
   196  1.9500000000000D+00  1.1208145942635D+00 -1.9289875799539D-01
   197  1.9600000000000D+00  1.1026816798273D+00 -1.8560984965090D-01
   198  1.9700000000000D+00  1.0838218371195D+00 -1.7840501525944D-01
   199  1.9800000000000D+00  1.0642778366262D+00 -1.7129248726139D-01
   200  1.9900000000000D+00  1.0440933329808D+00 -1.6428006141908D-01
   201  2.0000000000000D+00  1.0233127381924D+00 -1.5737509513956D-01
   202  2.0100000000000D+00  1.0019810936843D+00 -1.5058450672343D-01
   203  2.0200000000000D+00  9.8014394163712D-01 -1.4391477547801D-01
   204  2.0300000000000D+00  9.5784719607129D-01 -1.3737194267564D-01
   205  2.0400000000000D+00  9.3513701409199D-01 -1.3096161336086D-01
   206  2.0500000000000D+00  9.1205966766999D-01 -1.2468895892422D-01
   207  2.0600000000000D+00  8.8866141654073D-01 -1.1855872048070D-01
   208  2.0700000000000D+00  8.6498838244182D-01 -1.1257521296672D-01
   209  2.0800000000000D+00  8.4108642526640D-01 -1.0674232995523D-01
   210  2.0900000000000D+00  8.1700102157269D-01 -1.0106354915874D-01
   211  2.1000000000000D+00  7.9277714553510D-01 -9.5541938560438D-02
   212  2.1100000000000D+00  7.6845915334421D-01 -9.0180163180559D-02
   213  2.1200000000000D+00  7.4409067073753D-01 -8.4980492407671D-02
   214  2.1300000000000D+00  7.1971448454090D-01 -7.9944807880464D-02
   215  2.1400000000000D+00  6.9537243856046D-01 -7.5074611882583D-02
   216  2.1500000000000D+00  6.7110533353634D-01 -7.0371036208772D-02
   217  2.1600000000000D+00  6.4695283267316D-01 -6.5834851473456D-02
   218  2.1700000000000D+00  6.2295337180477D-01 -6.1466476825415D-02
   219  2.1800000000000D+00  5.9914407522392D-01 -5.7265990031033D-02
   220  2.1900000000000D+00  5.7556067761944D-01 -5.3233137887359D-02
   221  2.2000000000000D+00  5.5223745128054D-01 -4.9367346948916D-02
   222  2.2100000000000D+00  5.2920714042098D-01 -4.5667734501006D-02
   223  2.2200000000000D+00  5.0650090151258D-01 -4.2133119775361D-02
   224  2.2300000000000D+00  4.8414825004689D-01 -3.8762035370633D-02
   225  2.2400000000000D+00  4.6217701494931D-01 -3.5552738812270D-02
   226  2.2500000000000D+00  4.4061329899711D-01 -3.2503224277959D-02
   227  2.2600000000000D+00  4.1948144690442D-01 -2.9611234403759D-02
   228  2.2700000000000D+00  3.9880402080728D-01 -2.6874272152610D-02
   229  2.2800000000000D+00  3.7860178192335D-01 -2.4289612769820D-02
   230  2.2900000000000D+00  3.5889368085090D-01 -2.1854315693831D-02
   231  2.3000000000000D+00  3.3969685441363D-01 -1.9565236486991D-02
   232  2.3100000000000D+00  3.2102662941250D-01 -1.7419038746018D-02
   233  2.3200000000000D+00  3.0289653480375D-01 -1.5412205890595D-02
   234  2.3300000000000D+00  2.8531831990180D-01 -1.3541052923587D-02
   235  2.3400000000000D+00  2.6830198003691D-01 -1.1801738062972D-02
   236  2.3500000000000D+00  2.5185578978749D-01 -1.0190274210480D-02
   237  2.3600000000000D+00  2.3598634184382D-01 -8.7025403399114D-03
   238  2.3700000000000D+00  2.2069859347843D-01 -7.3342926625102D-03
   239  2.3800000000000D+00  2.0599591950794D-01 -6.0811756066223D-03
   240  2.3900000000000D+00  1.9188017037838D-01 -4.9387326719648D-03
   241  2.4000000000000D+00  1.7835173785118D-01 -3.9024169640304D-03
   242  2.4100000000000D+00  1.6540963170728D-01 -2.9676010531842D-03
   243  2.4200000000000D+00  1.5305152906107D-01 -2.1295893428544D-03
   244  2.4300000000000D+00  1.4127389690973D-01 -1.3836244701792D-03
   245  2.4400000000000D+00  1.3007208724002D-01 -7.2489613663217D-04
   246  2.4500000000000D+00  1.1944027487678D-01 -1.4856388189351D-04
   247  2.4600000000000D+00  1.0937172417088D-01  3.5024916845336D-04
   248  2.4700000000000D+00  9.9858875649326D-02  7.7644626697729D-04
   249  2.4800000000000D+00  9.0893706940322D-02  1.1349693246432D-03
   250  2.4900000000000D+00  8.2467231513023D-02  1.4307405595108D-03
   251  2.5000000000000D+00  7.4569498074161D-02  1.6686453490641D-03
   252  2.5100000000000D+00  6.7189448997942D-02  1.8535045989336D-03
   253  2.5200000000000D+00  6.0314897479244D-02  1.9900503310818D-03
   254  2.5300000000000D+00  5.3932355437448D-02  2.0828927430144D-03
   255  2.5400000000000D+00  4.8026772707056D-02  2.1364786342548D-03
   256  2.5500000000000D+00  4.2582010121255D-02  2.1551120169455D-03
   257  2.5600000000000D+00  3.7580897608387D-02  2.1429393749454D-03
   258  2.5700000000000D+00  3.3005509154005D-02  2.1039527984491D-03
   259  2.5800000000000D+00  2.8837097233949D-02  2.0419679876020D-03
   260  2.5900000000000D+00  2.5056274135397D-02  1.9606214049233D-03
   261  2.6000000000000D+00  2.1643157682156D-02  1.8633653487774D-03
   262  2.6100000000000D+00  1.8577466934167D-02  1.7534597170437D-03
   263  2.6200000000000D+00  1.5838648984824D-02  1.6339667954278D-03
   264  2.6300000000000D+00  1.3405997222360D-02  1.5077459415396D-03
   265  2.6400000000000D+00  1.1258766024877D-02  1.3774487666058D-03
   266  2.6500000000000D+00  9.3762831578178D-03  1.2455147422926D-03
   267  2.6600000000000D+00  7.7380601756921D-03  1.1141672415789D-03
   268  2.6700000000000D+00  6.3238970441157D-03  9.8541001242220D-04
   269  2.6800000000000D+00  5.1139838180681D-03  8.6102405238455D-04
   270  2.6900000000000D+00  4.0889992927484D-03  7.4256489615587D-04
   271  2.7000000000000D+00  3.2302027743661D-03  6.3136026629798D-04
   272  2.7100000000000D+00  2.5195215591171D-03  5.2850809977513D-04
   273  2.7200000000000D+00  1.9396345885445D-03  4.3487495947514D-04
   274  2.7300000000000D+00  1.4740489238274D-03  3.5109476480227D-04
   275  2.7400000000000D+00  1.1072962099527D-03  2.7757604377638D-04
   276  2.7500000000000D+00  8.2473295745810D-04  2.1448409707166D-04
   277  2.7600000000000D+00  6.1235631112556D-04  1.6172489797794D-04
   278  2.7700000000000D+00  4.5736561007964D-04  1.1895797957943D-04
   279  2.7800000000000D+00  3.4690299853915D-04  8.5409701853366D-05
   280  2.7900000000000D+00  2.7469962149959D-04  6.0880397120672D-05
   281  2.8000000000000D+00  2.3282891912607D-04  4.4499722175281D-05
   282  2.8100000000000D+00  2.1853883250820D-04  3.5935623909122D-05
   283  2.8200000000000D+00  2.1427797295899D-04  3.1912674242795D-05
   284  2.8300000000000D+00  2.0402758939936D-04  2.9175739442638D-05
   285  2.8400000000000D+00  1.7166251462724D-04  2.4320598366677D-05
   286  2.8500000000000D+00  1.1454546532204D-04  1.6180132459081D-05
   287  2.8600000000000D+00  5.2508637397903D-05  7.4394085123139D-06
   288  2.8700000000000D+00 -1.6447990056163D-07 -2.2691105842111D-08
   289  2.8800000000000D+00 -1.8363940391880D-05 -2.5268884981295D-06
   290  2.8900000000000D+00 -1.7926980070701D-05 -2.4629296567342D-06
   291  2.9000000000000D+00 -6.2746577199465D-06 -8.6127345358548D-07
   292  2.9100000000000D+00  2.5429664550652D-06  3.4717125391988D-07
   293  2.9200000000000D+00  4.4538888415948D-06  6.0691895746101D-07
   294  2.9300000000000D+00  3.0387514764393D-06  4.1342227804642D-07
   295  2.9400000000000D+00 -4.4301271904189D-08 -6.3042147124001D-09
   296  2.9500000000000D+00 -4.6836205742063D-07 -6.6649440212617D-08
   297  2.9600000000000D+00 -5.0688164979653D-07 -7.2130903171446D-08
   298  2.9700000000000D+00 -1.9888960758283D-07 -2.8302636388835D-08
   299  2.9800000000000D+00  0.0000000000000D+00  0.0000000000000D+00
   300  2.9900000000000D+00  0.0000000000000D+00  0.0000000000000D+00
   301  3.0000000000000D+00  0.0000000000000D+00  0.0000000000000D+00
   302  3.0100000000000D+00  0.0000000000000D+00  0.0000000000000D+00
   303  3.0200000000000D+00  0.0000000000000D+00  0.0000000000000D+00
   304  3.0300000000000D+00  0.0000000000000D+00  0.0000000000000D+00
   305  3.0400000000000D+00  0.0000000000000D+00  0.0000000000000D+00
   306  3.0500000000000D+00  0.0000000000000D+00  0.0000000000000D+00
   307  3.0600000000000D+00  0.0000000000000D+00  0.0000000000000D+00
   308  3.0700000000000D+00  0.0000000000000D+00  0.0000000000000D+00
   309  3.0800000000000D+00  0.0000000000000D+00  0.0000000000000D+00
   310  3.0900000000000D+00  0.0000000000000D+00  0.0000000000000D+00
   311  3.1000000000000D+00  0.0000000000000D+00  0.0000000000000D+00
   312  3.1100000000000D+00  0.0000000000000D+00  0.0000000000000D+00
   313  3.1200000000000D+00  0.0000000000000D+00  0.0000000000000D+00
   314  3.1300000000000D+00  0.0000000000000D+00  0.0000000000000D+00
   315  3.1400000000000D+00  0.0000000000000D+00  0.0000000000000D+00
   316  3.1500000000000D+00  0.0000000000000D+00  0.0000000000000D+00
   317  3.1600000000000D+00  0.0000000000000D+00  0.0000000000000D+00
   318  3.1700000000000D+00  0.0000000000000D+00  0.0000000000000D+00
   319  3.1800000000000D+00  0.0000000000000D+00  0.0000000000000D+00
   320  3.1900000000000D+00  0.0000000000000D+00  0.0000000000000D+00
   321  3.2000000000000D+00  0.0000000000000D+00  0.0000000000000D+00
   322  3.2100000000000D+00  0.0000000000000D+00  0.0000000000000D+00
   323  3.2200000000000D+00  0.0000000000000D+00  0.0000000000000D+00
   324  3.2300000000000D+00  0.0000000000000D+00  0.0000000000000D+00
   325  3.2400000000000D+00  0.0000000000000D+00  0.0000000000000D+00
   326  3.2500000000000D+00  0.0000000000000D+00  0.0000000000000D+00
   327  3.2600000000000D+00  0.0000000000000D+00  0.0000000000000D+00
   328  3.2700000000000D+00  0.0000000000000D+00  0.0000000000000D+00
   329  3.2800000000000D+00  0.0000000000000D+00  0.0000000000000D+00
   330  3.2900000000000D+00  0.0000000000000D+00  0.0000000000000D+00
   331  3.3000000000000D+00  0.0000000000000D+00  0.0000000000000D+00
   332  3.3100000000000D+00  0.0000000000000D+00  0.0000000000000D+00
   333  3.3200000000000D+00  0.0000000000000D+00  0.0000000000000D+00
   334  3.3300000000000D+00  0.0000000000000D+00  0.0000000000000D+00
   335  3.3400000000000D+00  0.0000000000000D+00  0.0000000000000D+00
   336  3.3500000000000D+00  0.0000000000000D+00  0.0000000000000D+00
   337  3.3600000000000D+00  0.0000000000000D+00  0.0000000000000D+00
   338  3.3700000000000D+00  0.0000000000000D+00  0.0000000000000D+00
   339  3.3800000000000D+00  0.0000000000000D+00  0.0000000000000D+00
   340  3.3900000000000D+00  0.0000000000000D+00  0.0000000000000D+00
   341  3.4000000000000D+00  0.0000000000000D+00  0.0000000000000D+00
   342  3.4100000000000D+00  0.0000000000000D+00  0.0000000000000D+00
   343  3.4200000000000D+00  0.0000000000000D+00  0.0000000000000D+00
   344  3.4300000000000D+00  0.0000000000000D+00  0.0000000000000D+00
   345  3.4400000000000D+00  0.0000000000000D+00  0.0000000000000D+00
   346  3.4500000000000D+00  0.0000000000000D+00  0.0000000000000D+00
   347  3.4600000000000D+00  0.0000000000000D+00  0.0000000000000D+00
   348  3.4700000000000D+00  0.0000000000000D+00  0.0000000000000D+00
   349  3.4800000000000D+00  0.0000000000000D+00  0.0000000000000D+00
   350  3.4900000000000D+00  0.0000000000000D+00  0.0000000000000D+00
   351  3.5000000000000D+00  0.0000000000000D+00  0.0000000000000D+00
   352  3.5100000000000D+00  0.0000000000000D+00  0.0000000000000D+00
   353  3.5200000000000D+00  0.0000000000000D+00  0.0000000000000D+00
   354  3.5300000000000D+00  0.0000000000000D+00  0.0000000000000D+00
   355  3.5400000000000D+00  0.0000000000000D+00  0.0000000000000D+00
   356  3.5500000000000D+00  0.0000000000000D+00  0.0000000000000D+00
   357  3.5600000000000D+00  0.0000000000000D+00  0.0000000000000D+00
   358  3.5700000000000D+00  0.0000000000000D+00  0.0000000000000D+00
   359  3.5800000000000D+00  0.0000000000000D+00  0.0000000000000D+00
   360  3.5900000000000D+00  0.0000000000000D+00  0.0000000000000D+00
   361  3.6000000000000D+00  0.0000000000000D+00  0.0000000000000D+00
   362  3.6100000000000D+00  0.0000000000000D+00  0.0000000000000D+00
   363  3.6200000000000D+00  0.0000000000000D+00  0.0000000000000D+00
   364  3.6300000000000D+00  0.0000000000000D+00  0.0000000000000D+00
   365  3.6400000000000D+00  0.0000000000000D+00  0.0000000000000D+00
   366  3.6500000000000D+00  0.0000000000000D+00  0.0000000000000D+00
   367  3.6600000000000D+00  0.0000000000000D+00  0.0000000000000D+00
   368  3.6700000000000D+00  0.0000000000000D+00  0.0000000000000D+00
   369  3.6800000000000D+00  0.0000000000000D+00  0.0000000000000D+00
   370  3.6900000000000D+00  0.0000000000000D+00  0.0000000000000D+00
   371  3.7000000000000D+00  0.0000000000000D+00  0.0000000000000D+00
   372  3.7100000000000D+00  0.0000000000000D+00  0.0000000000000D+00
   373  3.7200000000000D+00  0.0000000000000D+00  0.0000000000000D+00
   374  3.7300000000000D+00  0.0000000000000D+00  0.0000000000000D+00
   375  3.7400000000000D+00  0.0000000000000D+00  0.0000000000000D+00
   376  3.7500000000000D+00  0.0000000000000D+00  0.0000000000000D+00
   377  3.7600000000000D+00  0.0000000000000D+00  0.0000000000000D+00
   378  3.7700000000000D+00  0.0000000000000D+00  0.0000000000000D+00
   379  3.7800000000000D+00  0.0000000000000D+00  0.0000000000000D+00
   380  3.7900000000000D+00  0.0000000000000D+00  0.0000000000000D+00
   381  3.8000000000000D+00  0.0000000000000D+00  0.0000000000000D+00
   382  3.8100000000000D+00  0.0000000000000D+00  0.0000000000000D+00
   383  3.8200000000000D+00  0.0000000000000D+00  0.0000000000000D+00
   384  3.8300000000000D+00  0.0000000000000D+00  0.0000000000000D+00
   385  3.8400000000000D+00  0.0000000000000D+00  0.0000000000000D+00
   386  3.8500000000000D+00  0.0000000000000D+00  0.0000000000000D+00
   387  3.8600000000000D+00  0.0000000000000D+00  0.0000000000000D+00
   388  3.8700000000000D+00  0.0000000000000D+00  0.0000000000000D+00
   389  3.8800000000000D+00  0.0000000000000D+00  0.0000000000000D+00
   390  3.8900000000000D+00  0.0000000000000D+00  0.0000000000000D+00
   391  3.9000000000000D+00  0.0000000000000D+00  0.0000000000000D+00
   392  3.9100000000000D+00  0.0000000000000D+00  0.0000000000000D+00
   393  3.9200000000000D+00  0.0000000000000D+00  0.0000000000000D+00
   394  3.9300000000000D+00  0.0000000000000D+00  0.0000000000000D+00
   395  3.9400000000000D+00  0.0000000000000D+00  0.0000000000000D+00
   396  3.9500000000000D+00  0.0000000000000D+00  0.0000000000000D+00
   397  3.9600000000000D+00  0.0000000000000D+00  0.0000000000000D+00
   398  3.9700000000000D+00  0.0000000000000D+00  0.0000000000000D+00
   399  3.9800000000000D+00  0.0000000000000D+00  0.0000000000000D+00
   400  3.9900000000000D+00  0.0000000000000D+00  0.0000000000000D+00
   401  4.0000000000000D+00  0.0000000000000D+00  0.0000000000000D+00
   402  4.0100000000000D+00  0.0000000000000D+00  0.0000000000000D+00
   403  4.0200000000000D+00  0.0000000000000D+00  0.0000000000000D+00
   404  4.0300000000000D+00  0.0000000000000D+00  0.0000000000000D+00
   405  4.0400000000000D+00  0.0000000000000D+00  0.0000000000000D+00
   406  4.0500000000000D+00  0.0000000000000D+00  0.0000000000000D+00
   407  4.0600000000000D+00  0.0000000000000D+00  0.0000000000000D+00
   408  4.0700000000000D+00  0.0000000000000D+00  0.0000000000000D+00
   409  4.0800000000000D+00  0.0000000000000D+00  0.0000000000000D+00
   410  4.0900000000000D+00  0.0000000000000D+00  0.0000000000000D+00
   411  4.1000000000000D+00  0.0000000000000D+00  0.0000000000000D+00
   412  4.1100000000000D+00  0.0000000000000D+00  0.0000000000000D+00
   413  4.1200000000000D+00  0.0000000000000D+00  0.0000000000000D+00
   414  4.1300000000000D+00  0.0000000000000D+00  0.0000000000000D+00
   415  4.1400000000000D+00  0.0000000000000D+00  0.0000000000000D+00
   416  4.1500000000000D+00  0.0000000000000D+00  0.0000000000000D+00
   417  4.1600000000000D+00  0.0000000000000D+00  0.0000000000000D+00
   418  4.1700000000000D+00  0.0000000000000D+00  0.0000000000000D+00
   419  4.1800000000000D+00  0.0000000000000D+00  0.0000000000000D+00
   420  4.1900000000000D+00  0.0000000000000D+00  0.0000000000000D+00
   421  4.2000000000000D+00  0.0000000000000D+00  0.0000000000000D+00
   422  4.2100000000000D+00  0.0000000000000D+00  0.0000000000000D+00