La    ONCVPSP-3.3.1  r_core=   2.92093   2.92093   2.92093   2.47169
     57.0000     11.0000      210904    zatom,zion,pspd
     8      11   3     4   600     0    pspcod,pspxc,lmax,lloc,mmax,r2well
  5.99000000  0.00000000  0.00000000    rchrg fchrg qchrg
     2     2     2     2     0    nproj
     1     1           extension_switch
   0                         3.8552271473113D+00  5.7719677423286D-01
     1  0.0000000000000D+00  1.3634926521178D-12 -3.4526444203653D-12
     2  1.0000000000000D-02  2.9837886486345D-02 -1.5196350665450D-03
     3  2.0000000000000D-02  5.9662022278139D-02 -3.0453618873163D-03
     4  3.0000000000000D-02  8.9458641640746D-02 -4.5832086007315D-03
     5  4.0000000000000D-02  1.1921394885806D-01 -6.1390763758247D-03
     6  5.0000000000000D-02  1.4891410348812D-01 -7.7186765822605D-03
     7  6.0000000000000D-02  1.7854520591348D-01 -9.3274687435500D-03
     8  7.0000000000000D-02  2.0809328328280D-01 -1.0970599530452D-02
     9  8.0000000000000D-02  2.3754427593903D-01 -1.2652843048089D-02
    10  9.0000000000000D-02  2.6688402442770D-01 -1.4378542665949D-02
    11  1.0000000000000D-01  2.9609825717674D-01 -1.6151554634807D-02
    12  1.1000000000000D-01  3.2517257893705D-01 -1.7975193728600D-02
    13  1.2000000000000D-01  3.5409246007024D-01 -1.9852181142505D-02
    14  1.3000000000000D-01  3.8284322676692D-01 -2.1784594870856D-02
    15  1.4000000000000D-01  4.1141005227584D-01 -2.3773822780273D-02
    16  1.5000000000000D-01  4.3977794922036D-01 -2.5820518584217D-02
    17  1.6000000000000D-01  4.6793176307491D-01 -2.7924560915418D-02
    18  1.7000000000000D-01  4.9585616687017D-01 -3.0085015682184D-02
    19  1.8000000000000D-01  5.2353565719099D-01 -3.2300101883452D-02
    20  1.9000000000000D-01  5.5095455152665D-01 -3.4567161045640D-02
    21  2.0000000000000D-01  5.7809698702817D-01 -3.6882630432162D-02
    22  2.1000000000000D-01  6.0494692072220D-01 -3.9242020163437D-02
    23  2.2000000000000D-01  6.3148813122572D-01 -4.1639894371985D-02
    24  2.3000000000000D-01  6.5770422200066D-01 -4.4069856503233D-02
    25  2.4000000000000D-01  6.8357862618120D-01 -4.6524538858432D-02
    26  2.5000000000000D-01  7.0909461300163D-01 -4.8995596461466D-02
    27  2.6000000000000D-01  7.3423529584581D-01 -5.1473705316191D-02
    28  2.7000000000000D-01  7.5898364193405D-01 -5.3948565105826D-02
    29  2.8000000000000D-01  7.8332248365646D-01 -5.6408906370261D-02
    30  2.9000000000000D-01  8.0723453155599D-01 -5.8842502181396D-02
    31  3.0000000000000D-01  8.3070238895799D-01 -6.1236184320886D-02
    32  3.1000000000000D-01  8.5370856823675D-01 -6.3575863948459D-02
    33  3.2000000000000D-01  8.7623550870329D-01 -6.5846556733127D-02
    34  3.3000000000000D-01  8.9826559609217D-01 -6.8032412403484D-02
    35  3.4000000000000D-01  9.1978118361905D-01 -7.0116748657339D-02
    36  3.5000000000000D-01  9.4076461457403D-01 -7.2082089354967D-02
    37  3.6000000000000D-01  9.6119824641016D-01 -7.3910206904677D-02
    38  3.7000000000000D-01  9.8106447627988D-01 -7.5582168733779D-02
    39  3.8000000000000D-01  1.0003457679664D+00 -7.7078387722752D-02
    40  3.9000000000000D-01  1.0190246801511D+00 -7.8378676465515D-02
    41  4.0000000000000D-01  1.0370838959525D+00 -7.9462305204118D-02
    42  4.1000000000000D-01  1.0545062536654D+00 -8.0308063271852D-02
    43  4.2000000000000D-01  1.0712747786265D+00 -8.0894323865197D-02
    44  4.3000000000000D-01  1.0873727161238D+00 -8.1199111951661D-02
    45  4.4000000000000D-01  1.1027835652639D+00 -8.1200175107924D-02
    46  4.5000000000000D-01  1.1174911137081D+00 -8.0875057070582D-02
    47  4.6000000000000D-01  1.1314794731804D+00 -8.0201173770344D-02
    48  4.7000000000000D-01  1.1447331156485D+00 -7.9155891609691D-02
    49  4.8000000000000D-01  1.1572369100751D+00 -7.7716607733961D-02
    50  4.9000000000000D-01  1.1689761596310D+00 -7.5860832036582D-02
    51  5.0000000000000D-01  1.1799366392607D+00 -7.3566270630426D-02
    52  5.1000000000000D-01  1.1901046334873D+00 -7.0810910509830D-02
    53  5.2000000000000D-01  1.1994669743387D+00 -6.7573105120759D-02
    54  5.3000000000000D-01  1.2080110792788D+00 -6.3831660550715D-02
    55  5.4000000000000D-01  1.2157249890226D+00 -5.9565922045006D-02
    56  5.5000000000000D-01  1.2225974051119D+00 -5.4755860551666D-02
    57  5.6000000000000D-01  1.2286177271306D+00 -4.9382158994374D-02
    58  5.7000000000000D-01  1.2337760894330D+00 -4.3426297970463D-02
    59  5.8000000000000D-01  1.2380633972629D+00 -3.6870640569799D-02
    60  5.9000000000000D-01  1.2414713621377D+00 -2.9698516010293D-02
    61  6.0000000000000D-01  1.2439925363726D+00 -2.1894301786486D-02
    62  6.1000000000000D-01  1.2456203466236D+00 -1.3443504029632D-02
    63  6.2000000000000D-01  1.2463491263248D+00 -4.3328357802756D-03
    64  6.3000000000000D-01  1.2461741469008D+00  5.4497071213698D-03
    65  6.4000000000000D-01  1.2450916476347D+00  1.5914772817527D-02
    66  6.5000000000000D-01  1.2430988640756D+00  2.7071583171410D-02
    67  6.6000000000000D-01  1.2401940548723D+00  3.8927866739624D-02
    68  6.7000000000000D-01  1.2363765269229D+00  5.1489795247673D-02
    69  6.8000000000000D-01  1.2316466587325D+00  6.4761923829165D-02
    70  6.9000000000000D-01  1.2260059218776D+00  7.8747135279372D-02
    71  7.0000000000000D-01  1.2194569004781D+00  9.3446588563258D-02
    72  7.1000000000000D-01  1.2120033085825D+00  1.0885967180621D-01
    73  7.2000000000000D-01  1.2036500053784D+00  1.2498395998353D-01
    74  7.3000000000000D-01  1.1944030081444D+00  1.4181517751118D-01
    75  7.4000000000000D-01  1.1842695028659D+00  1.5934716592629D-01
    76  7.5000000000000D-01  1.1732578524423D+00  1.7757185683114D-01
    77  7.6000000000000D-01  1.1613776024215D+00  1.9647925025851D-01
    78  7.7000000000000D-01  1.1486394842015D+00  2.1605739860033D-01
    79  7.8000000000000D-01  1.1350554156479D+00  2.3629239622458D-01
    80  7.9000000000000D-01  1.1206384990815D+00  2.5716837488787D-01
    81  8.0000000000000D-01  1.1054030165990D+00  2.7866750503341D-01
    82  8.1000000000000D-01  1.0893644226964D+00  3.0077000304535D-01
    83  8.2000000000000D-01  1.0725393341714D+00  3.2345414451214D-01
    84  8.3000000000000D-01  1.0549455172915D+00  3.4669628353179D-01
    85  8.4000000000000D-01  1.0366018722198D+00  3.7047087807317D-01
    86  8.5000000000000D-01  1.0175284146995D+00  3.9475052138724D-01
    87  8.6000000000000D-01  9.9774625500706D-01  4.1950597944262D-01
    88  8.7000000000000D-01  9.7727757419016D-01  4.4470623434004D-01
    89  8.8000000000000D-01  9.5614559761689D-01  4.7031853364012D-01
    90  8.9000000000000D-01  9.3437456586904D-01  4.9630844551909D-01
    91  9.0000000000000D-01  9.1198970302159D-01  5.2263991964754D-01
    92  9.1000000000000D-01  8.8901718235795D-01  5.4927535366734D-01
    93  9.2000000000000D-01  8.6548408957905D-01  5.7617566512289D-01
    94  9.3000000000000D-01  8.4141838357155D-01  6.0330036868345D-01
    95  9.4000000000000D-01  8.1684885480901D-01  6.3060765847523D-01
    96  9.5000000000000D-01  7.9180508146679D-01  6.5805449532304D-01
    97  9.6000000000000D-01  7.6631738333927D-01  6.8559669868421D-01
    98  9.7000000000000D-01  7.4041677365497D-01  7.1318904304015D-01
    99  9.8000000000000D-01  7.1413490889227D-01  7.4078535849443D-01
   100  9.9000000000000D-01  6.8750403670505D-01  7.6833863531052D-01
   101  1.0000000000000D+00  6.6055694207391D-01  7.9580113210758D-01
   102  1.0100000000000D+00  6.3332689180501D-01  8.2312448741808D-01
   103  1.0200000000000D+00  6.0584757750409D-01  8.5025983429831D-01
   104  1.0300000000000D+00  5.7815305715884D-01  8.7715791766964D-01
   105  1.0400000000000D+00  5.5027769546760D-01  9.0376921405827D-01
   106  1.0500000000000D+00  5.2225610305757D-01  9.3004405338944D-01
   107  1.0600000000000D+00  4.9412307473929D-01  9.5593274248372D-01
   108  1.0700000000000D+00  4.6591352694865D-01  9.8138568989454D-01
   109  1.0800000000000D+00  4.3766243453064D-01  1.0063535317188D+00
   110  1.0900000000000D+00  4.0940476702213D-01  1.0307872580072D+00
   111  1.1000000000000D+00  3.8117542459355D-01  1.0546383393960D+00
   112  1.1100000000000D+00  3.5300917381133D-01  1.0778588535768D+00
   113  1.1200000000000D+00  3.2494058338429D-01  1.1004016112234D+00
   114  1.1300000000000D+00  2.9700396005844D-01  1.1222202809871D+00
   115  1.1400000000000D+00  2.6923328482499D-01  1.1432695131789D+00
   116  1.1500000000000D+00  2.4166214960653D-01  1.1635050617541D+00
   117  1.1600000000000D+00  2.1432369458570D-01  1.1828839042199D+00
   118  1.1700000000000D+00  1.8725054633968D-01  1.2013643590903D+00
   119  1.1800000000000D+00  1.6047475694259D-01  1.2189062005173D+00
   120  1.1900000000000D+00  1.3402774419560D-01  1.2354707697367D+00
   121  1.2000000000000D+00  1.0794023314135D-01  1.2510210829723D+00
   122  1.2100000000000D+00  8.2242199018262D-02  1.2655219354515D+00
   123  1.2200000000000D+00  5.6962811804741D-02  1.2789400011985D+00
   124  1.2300000000000D+00  3.2130382499465D-02  1.2912439282805D+00
   125  1.2400000000000D+00  7.7723112811149D-03  1.3024044291973D+00
   126  1.2500000000000D+00 -1.6084962315116D-02  1.3123943661131D+00
   127  1.2600000000000D+00 -3.9416007073590D-02  1.3211888306547D+00
   128  1.2700000000000D+00 -6.2196445499685D-02  1.3287652180079D+00
   129  1.2800000000000D+00 -8.4402996825584D-02  1.3351032950574D+00
   130  1.2900000000000D+00 -1.0601351750997D-01  1.3401852623511D+00
   131  1.3000000000000D+00 -1.2700703912319D-01  1.3439958096681D+00
   132  1.3100000000000D+00 -1.4736380351747D-01  1.3465221649959D+00
   133  1.3200000000000D+00 -1.6706529519562D-01  1.3477541367570D+00
   134  1.3300000000000D+00 -1.8609427078986D-01  1.3476841491215D+00
   135  1.3400000000000D+00 -2.0443478557605D-01  1.3463072702769D+00
   136  1.3500000000000D+00 -2.2207221696323D-01  1.3436212335646D+00
   137  1.3600000000000D+00 -2.3899328488925D-01  1.3396264513714D+00
   138  1.3700000000000D+00 -2.5518606908234D-01  1.3343260217349D+00
   139  1.3800000000000D+00 -2.7064002314861D-01  1.3277257276265D+00
   140  1.3900000000000D+00 -2.8534598544449D-01  1.3198340288698D+00
   141  1.4000000000000D+00 -2.9929618672814D-01  1.3106620467430D+00
   142  1.4100000000000D+00 -3.1248425456423D-01  1.3002235412644D+00
   143  1.4200000000000D+00 -3.2490521448391D-01  1.2885348812269D+00
   144  1.4300000000000D+00 -3.3655548791502D-01  1.2756150070825D+00
   145  1.4400000000000D+00 -3.4743288687856D-01  1.2614853867303D+00
   146  1.4500000000000D+00 -3.5753660550237D-01  1.2461699643950D+00
   147  1.4600000000000D+00 -3.6686720836407D-01  1.2296951026898D+00
   148  1.4700000000000D+00 -3.7542661572022D-01  1.2120895180655D+00
   149  1.4800000000000D+00 -3.8321808567514D-01  1.1933842098386D+00
   150  1.4900000000000D+00 -3.9024619333537D-01  1.1736123829752D+00
   151  1.5000000000000D+00 -3.9651680704966D-01  1.1528093649321D+00
   152  1.5100000000000D+00 -4.0203706177438D-01  1.1310125167182D+00
   153  1.5200000000000D+00 -4.0681532969065D-01  1.1082611385396D+00
   154  1.5300000000000D+00 -4.1086118813540D-01  1.0845963702413D+00
   155  1.5400000000000D+00 -4.1418538496941D-01  1.0600610869015D+00
   156  1.5500000000000D+00 -4.1679980148237D-01  1.0346997898774D+00
   157  1.5600000000000D+00 -4.1871741294857D-01  1.0085584936353D+00
   158  1.5700000000000D+00 -4.1995224696814D-01  9.8168460873999D-01
   159  1.5800000000000D+00 -4.2051933970021D-01  9.5412682132169D-01
   160  1.5900000000000D+00 -4.2043469015094D-01  9.2593496944926D-01
   161  1.6000000000000D+00 -4.1971521262054D-01  8.9715991672874D-01
   162  1.6100000000000D+00 -4.1837868748983D-01  8.6785342358202D-01
   163  1.6200000000000D+00 -4.1644371045660D-01  8.3806801654344D-01
   164  1.6300000000000D+00 -4.1392964040679D-01  8.0785685602731D-01
   165  1.6400000000000D+00 -4.1085654604526D-01  7.7727360293606D-01
   166  1.6500000000000D+00 -4.0724515146628D-01  7.4637228454247D-01
   167  1.6600000000000D+00 -4.0311678080395D-01  7.1520716004570D-01
   168  1.6700000000000D+00 -3.9849330213576D-01  6.8383258621106D-01
   169  1.6800000000000D+00 -3.9339707079146D-01  6.5230288351401D-01
   170  1.6900000000000D+00 -3.8785087223279D-01  6.2067220317097D-01
   171  1.7000000000000D+00 -3.8187786466508D-01  5.8899439549293D-01
   172  1.7100000000000D+00 -3.7550152153631D-01  5.5732287990760D-01
   173  1.7200000000000D+00 -3.6874557409285D-01  5.2571051710306D-01
   174  1.7300000000000D+00 -3.6163395413219D-01  4.9420948358491D-01
   175  1.7400000000000D+00 -3.5419073713287D-01  4.6287114912717D-01
   176  1.7500000000000D+00 -3.4644008587788D-01  4.3174595732880D-01
   177  1.7600000000000D+00 -3.3840619476902D-01  4.0088330980444D-01
   178  1.7700000000000D+00 -3.3011323491222D-01  3.7033145410424D-01
   179  1.7800000000000D+00 -3.2158530019902D-01  3.4013737597188D-01
   180  1.7900000000000D+00 -3.1284635441252D-01  3.1034669587531D-01
   181  1.8000000000000D+00 -3.0392017961798D-01  2.8100357051857D-01
   182  1.8100000000000D+00 -2.9483032581781D-01  2.5215059912625D-01
   183  1.8200000000000D+00 -2.8560006214101D-01  2.2382873522429D-01
   184  1.8300000000000D+00 -2.7625232953228D-01  1.9607720367808D-01
   185  1.8400000000000D+00 -2.6680969518104D-01  1.6893342360365D-01
   186  1.8500000000000D+00 -2.5729430867701D-01  1.4243293699160D-01
   187  1.8600000000000D+00 -2.4772786006334D-01  1.1660934343846D-01
   188  1.8700000000000D+00 -2.3813153983501D-01  9.1494241015340D-02
   189  1.8800000000000D+00 -2.2852600093968D-01  6.7117173327480D-02
   190  1.8900000000000D+00 -2.1893132293359D-01  4.3505583101103D-02
   191  1.9000000000000D+00 -2.0936697819349D-01  2.0684771902796D-02
   192  1.9100000000000D+00 -1.9985180046589D-01 -1.3221333117319D-03
   193  1.9200000000000D+00 -1.9040395551504D-01 -2.2494207599704D-02
   194  1.9300000000000D+00 -1.8104091419957D-01 -4.2812748564318D-02
   195  1.9400000000000D+00 -1.7177942774107D-01 -6.2261290779054D-02
   196  1.9500000000000D+00 -1.6263550538626D-01 -8.0825613653046D-02
   197  1.9600000000000D+00 -1.5362439439477D-01 -9.8493743023630D-02
   198  1.9700000000000D+00 -1.4476056230389D-01 -1.1525594671119D-01
   199  1.9800000000000D+00 -1.3605768164043D-01 -1.3110472368556D-01
   200  1.9900000000000D+00 -1.2752861676774D-01 -1.4603478776742D-01
   201  2.0000000000000D+00 -1.1918541320410D-01 -1.6004304509516D-01
   202  2.0100000000000D+00 -1.1103928903949D-01 -1.7312856641988D-01
   203  2.0200000000000D+00 -1.0310062864090D-01 -1.8529255385301D-01
   204  2.0300000000000D+00 -9.5378978525047D-02 -1.9653830247622D-01
   205  2.0400000000000D+00 -8.7883045247191D-02 -2.0687115729490D-01
   206  2.0500000000000D+00 -8.0620695478923D-02 -2.1629846523261D-01
   207  2.0600000000000D+00 -7.3598957897071D-02 -2.2482952317221D-01
   208  2.0700000000000D+00 -6.6824027098595D-02 -2.3247552167108D-01
   209  2.0800000000000D+00 -6.0301269270976D-02 -2.3924948508023D-01
   210  2.0900000000000D+00 -5.4035229565422D-02 -2.4516620831250D-01
   211  2.1000000000000D+00 -4.8029641197006D-02 -2.5024219035112D-01
   212  2.1100000000000D+00 -4.2287435957929D-02 -2.5449556526327D-01
   213  2.1200000000000D+00 -3.6810756276115D-02 -2.5794603064069D-01
   214  2.1300000000000D+00 -3.1600968546263D-02 -2.6061477410797D-01
   215  2.1400000000000D+00 -2.6658677671889D-02 -2.6252439818437D-01
   216  2.1500000000000D+00 -2.1983742768555D-02 -2.6369884379769D-01
   217  2.1600000000000D+00 -1.7575293797129D-02 -2.6416331290591D-01
   218  2.1700000000000D+00 -1.3431749116698D-02 -2.6394419058328D-01
   219  2.1800000000000D+00 -9.5508337811045D-03 -2.6306896690516D-01
   220  2.1900000000000D+00 -5.9295984687707D-03 -2.6156615897635D-01
   221  2.2000000000000D+00 -2.5644389320637D-03 -2.5946523366241D-01
   222  2.2100000000000D+00  5.4888413905887D-04 -2.5679653101882D-01
   223  2.2200000000000D+00  3.4152249955105D-03 -2.5359118915617D-01
   224  2.2300000000000D+00  6.0400344088178D-03 -2.4988107629115D-01
   225  2.2400000000000D+00  8.4293316713541D-03 -2.4569869619888D-01
   226  2.2500000000000D+00  1.0589699710995D-02 -2.4107716444092D-01
   227  2.2600000000000D+00  1.2528251564137D-02 -2.3605010224634D-01
   228  2.2700000000000D+00  1.4252591191650D-02 -2.3065151590251D-01
   229  2.2800000000000D+00  1.5770818716513D-02 -2.2491580536594D-01
   230  2.2900000000000D+00  1.7091588825106D-02 -2.1887794144269D-01
   231  2.3000000000000D+00  1.8224007558036D-02 -2.1257315746564D-01
   232  2.3100000000000D+00  1.9177495850191D-02 -2.0603654946065D-01
   233  2.3200000000000D+00  1.9961702232037D-02 -1.9930280743379D-01
   234  2.3300000000000D+00  2.0586396465221D-02 -1.9240593198062D-01
   235  2.3400000000000D+00  2.1061374565046D-02 -1.8537897246180D-01
   236  2.3500000000000D+00  2.1396251744695D-02 -1.7825343760089D-01
   237  2.3600000000000D+00  2.1600557498850D-02 -1.7105960797164D-01
   238  2.3700000000000D+00  2.1683692466227D-02 -1.6382644262226D-01
   239  2.3800000000000D+00  2.1654932004287D-02 -1.5658162673526D-01
   240  2.3900000000000D+00  2.1523358386237D-02 -1.4935139878395D-01
   241  2.4000000000000D+00  2.1297855030226D-02 -1.4216057031129D-01
   242  2.4100000000000D+00  2.0987085570738D-02 -1.3503249967551D-01
   243  2.4200000000000D+00  2.0599470555188D-02 -1.2798905927502D-01
   244  2.4300000000000D+00  2.0143170265752D-02 -1.2105062197010D-01
   245  2.4400000000000D+00  1.9626068311951D-02 -1.1423605037924D-01
   246  2.4500000000000D+00  1.9055756959684D-02 -1.0756269190328D-01
   247  2.4600000000000D+00  1.8439523801317D-02 -1.0104637821886D-01
   248  2.4700000000000D+00  1.7784340521663D-02 -9.4701431425336D-02
   249  2.4800000000000D+00  1.7096853282463D-02 -8.8540675340964D-02
   250  2.4900000000000D+00  1.6383374428767D-02 -8.2575451006897D-02
   251  2.5000000000000D+00  1.5649876288139D-02 -7.6815638586365D-02
   252  2.5100000000000D+00  1.4901986444483D-02 -7.1269683765902D-02
   253  2.5200000000000D+00  1.4144984272543D-02 -6.5944627980143D-02
   254  2.5300000000000D+00  1.3383799457558D-02 -6.0846144456310D-02
   255  2.5400000000000D+00  1.2623011832571D-02 -5.5978578083661D-02
   256  2.5500000000000D+00  1.1866852376370D-02 -5.1344988611015D-02
   257  2.5600000000000D+00  1.1119205989903D-02 -4.6947198796528D-02
   258  2.5700000000000D+00  1.0383615427655D-02 -4.2785845694756D-02
   259  2.5800000000000D+00  9.6632862562534D-03 -3.8860434684165D-02
   260  2.5900000000000D+00  8.9610932995670D-03 -3.5169397338039D-02
   261  2.6000000000000D+00  8.2795880711504D-03 -3.1710151732791D-02
   262  2.6100000000000D+00  7.6210070735041D-03 -2.8479164837887D-02
   263  2.6200000000000D+00  6.9872812319157D-03 -2.5472017486717D-02
   264  2.6300000000000D+00  6.3800461346871D-03 -2.2683471041328D-02
   265  2.6400000000000D+00  5.8006529586981D-03 -2.0107535427959D-02
   266  2.6500000000000D+00  5.2501801571349D-03 -1.7737538469205D-02
   267  2.6600000000000D+00  4.7294457397579D-03 -1.5566196056696D-02
   268  2.6700000000000D+00  4.2390200411384D-03 -1.3585682947350D-02
   269  2.6800000000000D+00  3.7792389111204D-03 -1.1787703724373D-02
   270  2.6900000000000D+00  3.3502172211675D-03 -1.0163563537280D-02
   271  2.7000000000000D+00  2.9518626473523D-03 -8.7042386872369D-03
   272  2.7100000000000D+00  2.5838896339930D-03 -7.4004466097462D-03
   273  2.7200000000000D+00  2.2458332971221D-03 -6.2427142498277D-03
   274  2.7300000000000D+00  1.9370633794959D-03 -5.2214454725912D-03
   275  2.7400000000000D+00  1.6567983100913D-03 -4.3269876802714D-03
   276  2.7500000000000D+00  1.4041186755471D-03 -3.5496949370234D-03
   277  2.7600000000000D+00  1.1779806158872D-03 -2.8799897018105D-03
   278  2.7700000000000D+00  9.7722918588654D-04 -2.3084232699560D-03
   279  2.7800000000000D+00  8.0061079851691D-04 -1.8257316648756D-03
   280  2.7900000000000D+00  6.4678534546665D-04 -1.4228892311592D-03
   281  2.8000000000000D+00  5.1433805799472D-04 -1.0911601469222D-03
   282  2.8100000000000D+00  4.0179052721284D-04 -8.2214577331054D-04
   283  2.8200000000000D+00  3.0761237265022D-04 -6.0783988515569D-04
   284  2.8300000000000D+00  2.3023204602484D-04 -4.4067788785294D-04
   285  2.8400000000000D+00  1.6802747732723D-04 -3.1342569399430D-04
   286  2.8500000000000D+00  1.1935942937054D-04 -2.1941625635562D-04
   287  2.8600000000000D+00  8.2413867852045D-05 -1.5211921615269D-04
   288  2.8700000000000D+00  5.5752120757624D-05 -1.0659748658781D-04
   289  2.8800000000000D+00  3.7841565035168D-05 -7.8264063107677D-05
   290  2.8900000000000D+00  2.7314665275413D-05 -6.3416863856819D-05
   291  2.9000000000000D+00  2.2340062032088D-05 -5.7765691945209D-05
   292  2.9100000000000D+00  1.9939086268991D-05 -5.4806870198584D-05
   293  2.9200000000000D+00  1.7961060871977D-05 -5.0213099406735D-05
   294  2.9300000000000D+00  1.3558521002877D-05 -3.8138420137942D-05
   295  2.9400000000000D+00  8.1111513365159D-06 -2.2790301612278D-05
   296  2.9500000000000D+00  2.7177026203187D-06 -7.5998090881675D-06
   297  2.9600000000000D+00 -8.7307910644552D-07  2.5163804693257D-06
   298  2.9700000000000D+00 -1.8064754859498D-06  5.2155377505494D-06
   299  2.9800000000000D+00 -1.3467296451764D-06  3.8918108235972D-06
   300  2.9900000000000D+00 -1.8211415845524D-07  5.2650883124694D-07
   301  3.0000000000000D+00  2.9755966477996D-07 -8.6849870359894D-07
   302  3.0100000000000D+00  3.8211834471283D-07 -1.1173379826730D-06
   303  3.0200000000000D+00  2.1156525367551D-07 -6.1960164126488D-07
   304  3.0300000000000D+00 -1.3379229354490D-08  3.7404930014013D-08
   305  3.0400000000000D+00 -4.6563869215622D-08  1.3018076176469D-07
   306  3.0500000000000D+00 -4.5098279548327D-08  1.2608334497917D-07
   307  3.0600000000000D+00 -1.4809109290717D-08  4.1402511453566D-08
   308  3.0700000000000D+00  0.0000000000000D+00  0.0000000000000D+00
   309  3.0800000000000D+00  0.0000000000000D+00  0.0000000000000D+00
   310  3.0900000000000D+00  0.0000000000000D+00  0.0000000000000D+00
   311  3.1000000000000D+00  0.0000000000000D+00  0.0000000000000D+00
   312  3.1100000000000D+00  0.0000000000000D+00  0.0000000000000D+00
   313  3.1200000000000D+00  0.0000000000000D+00  0.0000000000000D+00
   314  3.1300000000000D+00  0.0000000000000D+00  0.0000000000000D+00
   315  3.1400000000000D+00  0.0000000000000D+00  0.0000000000000D+00
   316  3.1500000000000D+00  0.0000000000000D+00  0.0000000000000D+00
   317  3.1600000000000D+00  0.0000000000000D+00  0.0000000000000D+00
   318  3.1700000000000D+00  0.0000000000000D+00  0.0000000000000D+00
   319  3.1800000000000D+00  0.0000000000000D+00  0.0000000000000D+00
   320  3.1900000000000D+00  0.0000000000000D+00  0.0000000000000D+00
   321  3.2000000000000D+00  0.0000000000000D+00  0.0000000000000D+00
   322  3.2100000000000D+00  0.0000000000000D+00  0.0000000000000D+00
   323  3.2200000000000D+00  0.0000000000000D+00  0.0000000000000D+00
   324  3.2300000000000D+00  0.0000000000000D+00  0.0000000000000D+00
   325  3.2400000000000D+00  0.0000000000000D+00  0.0000000000000D+00
   326  3.2500000000000D+00  0.0000000000000D+00  0.0000000000000D+00
   327  3.2600000000000D+00  0.0000000000000D+00  0.0000000000000D+00
   328  3.2700000000000D+00  0.0000000000000D+00  0.0000000000000D+00
   329  3.2800000000000D+00  0.0000000000000D+00  0.0000000000000D+00
   330  3.2900000000000D+00  0.0000000000000D+00  0.0000000000000D+00
   331  3.3000000000000D+00  0.0000000000000D+00  0.0000000000000D+00
   332  3.3100000000000D+00  0.0000000000000D+00  0.0000000000000D+00
   333  3.3200000000000D+00  0.0000000000000D+00  0.0000000000000D+00
   334  3.3300000000000D+00  0.0000000000000D+00  0.0000000000000D+00
   335  3.3400000000000D+00  0.0000000000000D+00  0.0000000000000D+00
   336  3.3500000000000D+00  0.0000000000000D+00  0.0000000000000D+00
   337  3.3600000000000D+00  0.0000000000000D+00  0.0000000000000D+00
   338  3.3700000000000D+00  0.0000000000000D+00  0.0000000000000D+00
   339  3.3800000000000D+00  0.0000000000000D+00  0.0000000000000D+00
   340  3.3900000000000D+00  0.0000000000000D+00  0.0000000000000D+00
   341  3.4000000000000D+00  0.0000000000000D+00  0.0000000000000D+00
   342  3.4100000000000D+00  0.0000000000000D+00  0.0000000000000D+00
   343  3.4200000000000D+00  0.0000000000000D+00  0.0000000000000D+00
   344  3.4300000000000D+00  0.0000000000000D+00  0.0000000000000D+00
   345  3.4400000000000D+00  0.0000000000000D+00  0.0000000000000D+00
   346  3.4500000000000D+00  0.0000000000000D+00  0.0000000000000D+00
   347  3.4600000000000D+00  0.0000000000000D+00  0.0000000000000D+00
   348  3.4700000000000D+00  0.0000000000000D+00  0.0000000000000D+00
   349  3.4800000000000D+00  0.0000000000000D+00  0.0000000000000D+00
   350  3.4900000000000D+00  0.0000000000000D+00  0.0000000000000D+00
   351  3.5000000000000D+00  0.0000000000000D+00  0.0000000000000D+00
   352  3.5100000000000D+00  0.0000000000000D+00  0.0000000000000D+00
   353  3.5200000000000D+00  0.0000000000000D+00  0.0000000000000D+00
   354  3.5300000000000D+00  0.0000000000000D+00  0.0000000000000D+00
   355  3.5400000000000D+00  0.0000000000000D+00  0.0000000000000D+00
   356  3.5500000000000D+00  0.0000000000000D+00  0.0000000000000D+00
   357  3.5600000000000D+00  0.0000000000000D+00  0.0000000000000D+00
   358  3.5700000000000D+00  0.0000000000000D+00  0.0000000000000D+00
   359  3.5800000000000D+00  0.0000000000000D+00  0.0000000000000D+00
   360  3.5900000000000D+00  0.0000000000000D+00  0.0000000000000D+00
   361  3.6000000000000D+00  0.0000000000000D+00  0.0000000000000D+00
   362  3.6100000000000D+00  0.0000000000000D+00  0.0000000000000D+00
   363  3.6200000000000D+00  0.0000000000000D+00  0.0000000000000D+00
   364  3.6300000000000D+00  0.0000000000000D+00  0.0000000000000D+00
   365  3.6400000000000D+00  0.0000000000000D+00  0.0000000000000D+00
   366  3.6500000000000D+00  0.0000000000000D+00  0.0000000000000D+00
   367  3.6600000000000D+00  0.0000000000000D+00  0.0000000000000D+00
   368  3.6700000000000D+00  0.0000000000000D+00  0.0000000000000D+00
   369  3.6800000000000D+00  0.0000000000000D+00  0.0000000000000D+00
   370  3.6900000000000D+00  0.0000000000000D+00  0.0000000000000D+00
   371  3.7000000000000D+00  0.0000000000000D+00  0.0000000000000D+00
   372  3.7100000000000D+00  0.0000000000000D+00  0.0000000000000D+00
   373  3.7200000000000D+00  0.0000000000000D+00  0.0000000000000D+00
   374  3.7300000000000D+00  0.0000000000000D+00  0.0000000000000D+00
   375  3.7400000000000D+00  0.0000000000000D+00  0.0000000000000D+00
   376  3.7500000000000D+00  0.0000000000000D+00  0.0000000000000D+00
   377  3.7600000000000D+00  0.0000000000000D+00  0.0000000000000D+00
   378  3.7700000000000D+00  0.0000000000000D+00  0.0000000000000D+00
   379  3.7800000000000D+00  0.0000000000000D+00  0.0000000000000D+00
   380  3.7900000000000D+00  0.0000000000000D+00  0.0000000000000D+00
   381  3.8000000000000D+00  0.0000000000000D+00  0.0000000000000D+00
   382  3.8100000000000D+00  0.0000000000000D+00  0.0000000000000D+00
   383  3.8200000000000D+00  0.0000000000000D+00  0.0000000000000D+00
   384  3.8300000000000D+00  0.0000000000000D+00  0.0000000000000D+00
   385  3.8400000000000D+00  0.0000000000000D+00  0.0000000000000D+00
   386  3.8500000000000D+00  0.0000000000000D+00  0.0000000000000D+00
   387  3.8600000000000D+00  0.0000000000000D+00  0.0000000000000D+00
   388  3.8700000000000D+00  0.0000000000000D+00  0.0000000000000D+00
   389  3.8800000000000D+00  0.0000000000000D+00  0.0000000000000D+00
   390  3.8900000000000D+00  0.0000000000000D+00  0.0000000000000D+00
   391  3.9000000000000D+00  0.0000000000000D+00  0.0000000000000D+00
   392  3.9100000000000D+00  0.0000000000000D+00  0.0000000000000D+00
   393  3.9200000000000D+00  0.0000000000000D+00  0.0000000000000D+00
   394  3.9300000000000D+00  0.0000000000000D+00  0.0000000000000D+00
   395  3.9400000000000D+00  0.0000000000000D+00  0.0000000000000D+00
   396  3.9500000000000D+00  0.0000000000000D+00  0.0000000000000D+00
   397  3.9600000000000D+00  0.0000000000000D+00  0.0000000000000D+00
   398  3.9700000000000D+00  0.0000000000000D+00  0.0000000000000D+00
   399  3.9800000000000D+00  0.0000000000000D+00  0.0000000000000D+00
   400  3.9900000000000D+00  0.0000000000000D+00  0.0000000000000D+00
   401  4.0000000000000D+00  0.0000000000000D+00  0.0000000000000D+00
   402  4.0100000000000D+00  0.0000000000000D+00  0.0000000000000D+00
   403  4.0200000000000D+00  0.0000000000000D+00  0.0000000000000D+00
   404  4.0300000000000D+00  0.0000000000000D+00  0.0000000000000D+00
   405  4.0400000000000D+00  0.0000000000000D+00  0.0000000000000D+00
   406  4.0500000000000D+00  0.0000000000000D+00  0.0000000000000D+00
   407  4.0600000000000D+00  0.0000000000000D+00  0.0000000000000D+00
   408  4.0700000000000D+00  0.0000000000000D+00  0.0000000000000D+00
   409  4.0800000000000D+00  0.0000000000000D+00  0.0000000000000D+00
   410  4.0900000000000D+00  0.0000000000000D+00  0.0000000000000D+00
   411  4.1000000000000D+00  0.0000000000000D+00  0.0000000000000D+00
   412  4.1100000000000D+00  0.0000000000000D+00  0.0000000000000D+00
   413  4.1200000000000D+00  0.0000000000000D+00  0.0000000000000D+00
   414  4.1300000000000D+00  0.0000000000000D+00  0.0000000000000D+00
   415  4.1400000000000D+00  0.0000000000000D+00  0.0000000000000D+00
   416  4.1500000000000D+00  0.0000000000000D+00  0.0000000000000D+00
   417  4.1600000000000D+00  0.0000000000000D+00  0.0000000000000D+00
   418  4.1700000000000D+00  0.0000000000000D+00  0.0000000000000D+00
   419  4.1800000000000D+00  0.0000000000000D+00  0.0000000000000D+00
   420  4.1900000000000D+00  0.0000000000000D+00  0.0000000000000D+00
   421  4.2000000000000D+00  0.0000000000000D+00  0.0000000000000D+00
   422  4.2100000000000D+00  0.0000000000000D+00  0.0000000000000D+00