Li    ONCVPSP-3.3.1  r_core=   1.76647   1.40824
      3.0000      3.0000      210904    zatom,zion,pspd
     8      11   1     4   600     0    pspcod,pspxc,lmax,lloc,mmax,r2well
  5.99000000  0.00000000  0.00000000    rchrg fchrg qchrg
     2     2     0     0     0    nproj
     1     1           extension_switch
   0                        -4.8305104752534D+00 -2.2073576612513D+00
     1  0.0000000000000D+00  6.0647120658786D-10 -4.8400575214380D-10
     2  1.0000000000000D-02  6.7313863853837D-02  1.9466622847056D-02
     3  2.0000000000000D-02  1.3455418117129D-01  3.8884669662136D-02
     4  3.0000000000000D-02  2.0164643977328D-01  5.8206502885413D-02
     5  4.0000000000000D-02  2.6851421093924D-01  7.7386349964878D-02
     6  5.0000000000000D-02  3.3507822784101D-01  9.6381206142870D-02
     7  6.0000000000000D-02  4.0125550758955D-01  1.1515170192724D-01
     8  7.0000000000000D-02  4.6695853071451D-01  1.3366292404783D-01
     9  8.0000000000000D-02  5.3209449129056D-01  1.5188517918302D-01
    10  9.0000000000000D-02  5.9656463017666D-01  1.6979469033768D-01
    11  1.0000000000000D-01  6.6026366295194D-01  1.8737421645799D-01
    12  1.1000000000000D-01  7.2307931312383D-01  2.0461358667328D-01
    13  1.2000000000000D-01  7.8489196005804D-01  2.2151014145335D-01
    14  1.3000000000000D-01  8.4557440984764D-01  2.3806907395311D-01
    15  1.4000000000000D-01  9.0499179601055D-01  2.5430366587599D-01
    16  1.5000000000000D-01  9.6300161549379D-01  2.7023541331295D-01
    17  1.6000000000000D-01  1.0194539039818D+00  2.8589403919568D-01
    18  1.7000000000000D-01  1.0741915529691D+00  3.0131739022831D-01
    19  1.8000000000000D-01  1.1270507694793D+00  3.1655121742075D-01
    20  1.9000000000000D-01  1.1778616777071D+00  3.3164884062670D-01
    21  2.0000000000000D-01  1.2264490602445D+00  3.4667069877757D-01
    22  2.1000000000000D-01  1.2726332349392D+00  3.6168378878793D-01
    23  2.2000000000000D-01  1.3162310618459D+00  3.7676099737581D-01
    24  2.3000000000000D-01  1.3570570731710D+00  3.9198033127974D-01
    25  2.4000000000000D-01  1.3949247176134D+00  4.0742405255091D-01
    26  2.5000000000000D-01  1.4296477090633D+00  4.2317772674216D-01
    27  2.6000000000000D-01  1.4610414682703D+00  4.3932919289177D-01
    28  2.7000000000000D-01  1.4889246448315D+00  4.5596746520048D-01
    29  2.8000000000000D-01  1.5131207057035D+00  4.7318157721110D-01
    30  2.9000000000000D-01  1.5334595754149D+00  4.9105938011385D-01
    31  3.0000000000000D-01  1.5497793122649D+00  5.0968630750635D-01
    32  3.1000000000000D-01  1.5619278040465D+00  5.2914411952659D-01
    33  3.2000000000000D-01  1.5697644662383D+00  5.4950963974395D-01
    34  3.3000000000000D-01  1.5731619251790D+00  5.7085349852948D-01
    35  3.4000000000000D-01  1.5720076684769D+00  5.9323889682798D-01
    36  3.5000000000000D-01  1.5662056448146D+00  6.1672040431669D-01
    37  3.6000000000000D-01  1.5556777954030D+00  6.4134280585611D-01
    38  3.7000000000000D-01  1.5403654996015D+00  6.6714000991536D-01
    39  3.8000000000000D-01  1.5202309176699D+00  6.9413403228920D-01
    40  3.9000000000000D-01  1.4952582142438D+00  7.2233406791611D-01
    41  4.0000000000000D-01  1.4654546469191D+00  7.5173566296061D-01
    42  4.1000000000000D-01  1.4308515053054D+00  7.8231999854231D-01
    43  4.2000000000000D-01  1.3915048870305D+00  8.1405329658440D-01
    44  4.3000000000000D-01  1.3474962984693D+00  8.4688635722277D-01
    45  4.4000000000000D-01  1.2989330693906D+00  8.8075423607210D-01
    46  4.5000000000000D-01  1.2459485722788D+00  9.1557606839669D-01
    47  4.6000000000000D-01  1.1887022387615D+00  9.5125504589212D-01
    48  4.7000000000000D-01  1.1273793673565D+00  9.8767855036174D-01
    49  4.8000000000000D-01  1.0621907186175D+00  1.0247184470818D+00
    50  4.9000000000000D-01  9.9337189569959D-01  1.0622315391051D+00
    51  5.0000000000000D-01  9.2118251035355D-01  1.1000601821699D+00
    52  5.1000000000000D-01  8.4590513638539D-01  1.1380330582753D+00
    53  5.2000000000000D-01  7.6784405465428D-01  1.1759661043671D+00
    54  5.3000000000000D-01  6.8732379571558D-01  1.2136635909767D+00
    55  5.4000000000000D-01  6.0468748822072D-01  1.2509193440699D+00
    56  5.5000000000000D-01  5.2029502314661D-01  1.2875181018271D+00
    57  5.6000000000000D-01  4.3452104581660D-01  1.3232369965932D+00
    58  5.7000000000000D-01  3.4775278948355D-01  1.3578471508282D+00
    59  5.8000000000000D-01  2.6038776594109D-01  1.3911153745721D+00
    60  5.9000000000000D-01  1.7283133020606D-01  1.4228059507241D+00
    61  6.0000000000000D-01  8.5494137743769D-02  1.4526824933419D+00
    62  6.1000000000000D-01 -1.2104860164297D-03  1.4805098632032D+00
    63  6.2000000000000D-01 -8.6869243033080D-02  1.5060561240529D+00
    64  6.3000000000000D-01 -1.7107160511435D-01  1.5290945222919D+00
    65  6.4000000000000D-01 -2.5341257902347D-01  1.5494054723677D+00
    66  6.5000000000000D-01 -3.3349547125652D-01  1.5667785297880D+00
    67  6.6000000000000D-01 -4.1093462923659D-01  1.5810143335345D+00
    68  6.7000000000000D-01 -4.8535813560469D-01  1.5919264996741D+00
    69  6.8000000000000D-01 -5.5641043245113D-01  1.5993434481834D+00
    70  6.9000000000000D-01 -6.2375485272217D-01  1.6031101453940D+00
    71  7.0000000000000D-01 -6.8707603665603D-01  1.6030897450486D+00
    72  7.1000000000000D-01 -7.4608221193857D-01  1.5991651117147D+00
    73  7.2000000000000D-01 -8.0050731733253D-01  1.5912402112359D+00
    74  7.3000000000000D-01 -8.5011295079865D-01  1.5792413540021D+00
    75  7.4000000000000D-01 -8.9469012459378D-01  1.5631182780762D+00
    76  7.5000000000000D-01 -9.3406081148530D-01  1.5428450606206D+00
    77  7.6000000000000D-01 -9.6807926804359D-01  1.5184208476052D+00
    78  7.7000000000000D-01 -9.9663312295257D-01  1.4898703934356D+00
    79  7.8000000000000D-01 -1.0196442203990D+00  1.4572444039085D+00
    80  7.9000000000000D-01 -1.0370692108278D+00  1.4206196777479D+00
    81  8.0000000000000D-01 -1.0488998836808D+00  1.3800990438966D+00
    82  8.1000000000000D-01 -1.0551632391337D+00  1.3358110937080D+00
    83  8.2000000000000D-01 -1.0559212982933D+00  1.2879097091845D+00
    84  8.3000000000000D-01 -1.0512706537898D+00  1.2365733904161D+00
    85  8.4000000000000D-01 -1.0413417651654D+00  1.1820043873753D+00
    86  8.5000000000000D-01 -1.0262980059068D+00  1.1244276431898D+00
    87  8.6000000000000D-01 -1.0063344713600D+00  1.0640895579304D+00
    88  8.7000000000000D-01 -9.8167655907942D-01  1.0012565837914D+00
    89  8.8000000000000D-01 -9.5257833570351D-01  9.3621366479839D-01
    90  8.9000000000000D-01 -9.1932070613635D-01  8.6926253499826D-01
    91  9.0000000000000D-01 -8.8220938503914D-01  8.0071986423204D-01
    92  9.1000000000000D-01 -8.4157279596965D-01  7.3091543146468D-01
    93  9.2000000000000D-01 -7.9775915389356D-01  6.6018914964369D-01
    94  9.3000000000000D-01 -7.5113254861193D-01  5.8888677528105D-01
    95  9.4000000000000D-01 -7.0206933560662D-01  5.1735640352522D-01
    96  9.5000000000000D-01 -6.5095524574031D-01  4.4594623215089D-01
    97  9.6000000000000D-01 -5.9818237377948D-01  3.7500218210780D-01
    98  9.7000000000000D-01 -5.4414616270258D-01  3.0486554977586D-01
    99  9.8000000000000D-01 -4.8924239163858D-01  2.3587068207340D-01
   100  9.9000000000000D-01 -4.3386419190044D-01  1.6834269439119D-01
   101  1.0000000000000D+00 -3.7839911558766D-01  1.0259525129835D-01
   102  1.0100000000000D+00 -3.2322628044930D-01  3.8928429017723D-02
   103  1.0200000000000D+00 -2.6871361398363D-01 -2.2373322001255D-02
   104  1.0300000000000D+00 -2.1521521882564D-01 -8.1043096926659D-02
   105  1.0400000000000D+00 -1.6306888032759D-01 -1.3683332234906D-01
   106  1.0500000000000D+00 -1.1259373601734D-01 -1.8951739267652D-01
   107  1.0600000000000D+00 -6.4088125019780D-02 -2.3889114315274D-01
   108  1.0700000000000D+00 -1.7827633978555D-02 -2.8477414688416D-01
   109  1.0800000000000D+00  2.5936645795356D-02 -3.2701082483343D-01
   110  1.0900000000000D+00  6.6979637214780D-02 -3.6547135945501D-01
   111  1.1000000000000D+00  1.0510356135119D-01 -4.0005240414538D-01
   112  1.1100000000000D+00  1.4013897790858D-01 -4.3067758281113D-01
   113  1.1200000000000D+00  1.7194557559307D-01 -4.5729777544351D-01
   114  1.1300000000000D+00  2.0041270825210D-01 -4.7989118772574D-01
   115  1.1400000000000D+00  2.2545967444370D-01 -4.9846320421360D-01
   116  1.1500000000000D+00  2.4703574085675D-01 -5.1304602695629D-01
   117  1.1600000000000D+00  2.6511991193708D-01 -5.2369810304875D-01
   118  1.1700000000000D+00  2.7972045059896D-01 -5.3050334671740D-01
   119  1.1800000000000D+00  2.9087415631062D-01 -5.3357016271761D-01
   120  1.1900000000000D+00  2.9864540987769D-01 -5.3303028034358D-01
   121  1.2000000000000D+00  3.0312499566927D-01 -5.2903740851587D-01
   122  1.2100000000000D+00  3.0442871390780D-01 -5.2176572395329D-01
   123  1.2200000000000D+00  3.0269579732980D-01 -5.1140820581865D-01
   124  1.2300000000000D+00  2.9808714850188D-01 -4.9817483182278D-01
   125  1.2400000000000D+00  2.9078341517647D-01 -4.8229065163683D-01
   126  1.2500000000000D+00  2.8098292197183D-01 -4.6399375419675D-01
   127  1.2600000000000D+00  2.6889947859244D-01 -4.4353314698376D-01
   128  1.2700000000000D+00  2.5476008498584D-01 -4.2116656544918D-01
   129  1.2800000000000D+00  2.3880255446345D-01 -3.9715823127255D-01
   130  1.2900000000000D+00  2.2127307688230D-01 -3.7177657886010D-01
   131  1.3000000000000D+00  2.0242374347300D-01 -3.4529196899669D-01
   132  1.3100000000000D+00  1.8251005555246D-01 -3.1797440911972D-01
   133  1.3200000000000D+00  1.6178843893608D-01 -2.9009129907758D-01
   134  1.3300000000000D+00  1.4051378518482D-01 -2.6190522065327D-01
   135  1.3400000000000D+00  1.1893704140185D-01 -2.3367178959064D-01
   136  1.3500000000000D+00  9.7302868053792D-02 -2.0563758670653D-01
   137  1.3600000000000D+00  7.5847384565242D-02 -1.7803818497018D-01
   138  1.3700000000000D+00  5.4796021720759D-02 -1.5109628869759D-01
   139  1.3800000000000D+00  3.4361496843624D-02 -1.2501999822480D-01
   140  1.3900000000000D+00  1.4741929801433D-02 -1.0000121531254D-01
   141  1.4000000000000D+00 -3.8808863244402D-03 -7.6214200688785D-02
   142  1.4100000000000D+00 -2.1343046041458D-02 -5.3814295184425D-02
   143  1.4200000000000D+00 -3.7499909564723D-02 -3.2936816165309D-02
   144  1.4300000000000D+00 -5.2227288883145D-02 -1.3696136652322D-02
   145  1.4400000000000D+00 -6.5422428893329D-02  3.8150423164593D-03
   146  1.4500000000000D+00 -7.7004775524721D-02  1.9526219843860D-02
   147  1.4600000000000D+00 -8.6916521369138D-02  3.3389416417773D-02
   148  1.4700000000000D+00 -9.5122920139639D-02  4.5379281407604D-02
   149  1.4800000000000D+00 -1.0161236336831D-01  5.5492982171025D-02
   150  1.4900000000000D+00 -1.0639621056600D-01  6.3749867792320D-02
   151  1.5000000000000D+00 -1.0950836714536D-01  7.0190903791608D-02
   152  1.5100000000000D+00 -1.1100460281619D-01  7.4877872365758D-02
   153  1.5200000000000D+00 -1.1096160358876D-01  7.7892333436908D-02
   154  1.5300000000000D+00 -1.0947575425818D-01  7.9334345315431D-02
   155  1.5400000000000D+00 -1.0666164061574D-01  7.9320936638329D-02
   156  1.5500000000000D+00 -1.0265027853657D-01  7.7984338227710D-02
   157  1.5600000000000D+00 -9.7587050926781D-02  7.5469959084222D-02
   158  1.5700000000000D+00 -9.1629377716899D-02  7.1934131705256D-02
   159  1.5800000000000D+00 -8.4944092412260D-02  6.7541604554988D-02
   160  1.5900000000000D+00 -7.7704569042931D-02  6.2462823458658D-02
   161  1.6000000000000D+00 -7.0087578880338D-02  5.6870985460510D-02
   162  1.6100000000000D+00 -6.2269932650943D-02  5.0938917179929D-02
   163  1.6200000000000D+00 -5.4424913172833D-02  4.4835784060880D-02
   164  1.6300000000000D+00 -4.6718560037409D-02  3.8723687612698D-02
   165  1.6400000000000D+00 -3.9305858877686D-02  3.2754198488220D-02
   166  1.6500000000000D+00 -3.2326900828393D-02  2.7064886246532D-02
   167  1.6600000000000D+00 -2.5903128900380D-02  2.1775948350364D-02
   168  1.6700000000000D+00 -2.0133757482121D-02  1.6987018069728D-02
   169  1.6800000000000D+00 -1.5092530107432D-02  1.2774293103770D-02
   170  1.6900000000000D+00 -1.0824983228023D-02  9.1881368790627D-03
   171  1.7000000000000D+00 -7.3463409074087D-03  6.2512548309195D-03
   172  1.7100000000000D+00 -4.6400185500691D-03  3.9574386777421D-03
   173  1.7200000000000D+00 -2.6589327188008D-03  2.2727450031061D-03
   174  1.7300000000000D+00 -1.3256809647312D-03  1.1357343221631D-03
   175  1.7400000000000D+00 -5.3249411011423D-04  4.5764324328070D-04
   176  1.7500000000000D+00 -1.5056305925732D-04  1.3053681470032D-04
   177  1.7600000000000D+00 -3.0062227093178D-05  2.7160494208808D-05
   178  1.7700000000000D+00 -1.4883967354826D-05  1.3786275891187D-05
   179  1.7800000000000D+00 -8.1099937754520D-06  7.3511751439012D-06
   180  1.7900000000000D+00  2.2258259259930D-07 -2.4495301464316D-07
   181  1.8000000000000D+00  4.5912670854298D-07 -4.9529572460444D-07
   182  1.8100000000000D+00  3.8582298512661D-08 -2.8420838731537D-08
   183  1.8200000000000D+00  2.8659041970545D-07 -2.1709880289768D-07
   184  1.8300000000000D+00  3.5036718020885D-08 -2.6954453981718D-08
   185  1.8400000000000D+00  5.2501252379660D-08 -4.8429385667112D-08
   186  1.8500000000000D+00  1.9580834142763D-08 -1.8062193288765D-08
   187  1.8600000000000D+00  0.0000000000000D+00  0.0000000000000D+00
   188  1.8700000000000D+00  0.0000000000000D+00  0.0000000000000D+00
   189  1.8800000000000D+00  0.0000000000000D+00  0.0000000000000D+00
   190  1.8900000000000D+00  0.0000000000000D+00  0.0000000000000D+00
   191  1.9000000000000D+00  0.0000000000000D+00  0.0000000000000D+00
   192  1.9100000000000D+00  0.0000000000000D+00  0.0000000000000D+00
   193  1.9200000000000D+00  0.0000000000000D+00  0.0000000000000D+00
   194  1.9300000000000D+00  0.0000000000000D+00  0.0000000000000D+00
   195  1.9400000000000D+00  0.0000000000000D+00  0.0000000000000D+00
   196  1.9500000000000D+00  0.0000000000000D+00  0.0000000000000D+00
   197  1.9600000000000D+00  0.0000000000000D+00  0.0000000000000D+00
   198  1.9700000000000D+00  0.0000000000000D+00  0.0000000000000D+00
   199  1.9800000000000D+00  0.0000000000000D+00  0.0000000000000D+00
   200  1.9900000000000D+00  0.0000000000000D+00  0.0000000000000D+00
   201  2.0000000000000D+00  0.0000000000000D+00  0.0000000000000D+00
   202  2.0100000000000D+00  0.0000000000000D+00  0.0000000000000D+00
   203  2.0200000000000D+00  0.0000000000000D+00  0.0000000000000D+00
   204  2.0300000000000D+00  0.0000000000000D+00  0.0000000000000D+00
   205  2.0400000000000D+00  0.0000000000000D+00  0.0000000000000D+00
   206  2.0500000000000D+00  0.0000000000000D+00  0.0000000000000D+00
   207  2.0600000000000D+00  0.0000000000000D+00  0.0000000000000D+00
   208  2.0700000000000D+00  0.0000000000000D+00  0.0000000000000D+00
   209  2.0800000000000D+00  0.0000000000000D+00  0.0000000000000D+00
   210  2.0900000000000D+00  0.0000000000000D+00  0.0000000000000D+00
   211  2.1000000000000D+00  0.0000000000000D+00  0.0000000000000D+00
   212  2.1100000000000D+00  0.0000000000000D+00  0.0000000000000D+00
   213  2.1200000000000D+00  0.0000000000000D+00  0.0000000000000D+00
   214  2.1300000000000D+00  0.0000000000000D+00  0.0000000000000D+00
   215  2.1400000000000D+00  0.0000000000000D+00  0.0000000000000D+00
   216  2.1500000000000D+00  0.0000000000000D+00  0.0000000000000D+00
   217  2.1600000000000D+00  0.0000000000000D+00  0.0000000000000D+00
   218  2.1700000000000D+00  0.0000000000000D+00  0.0000000000000D+00
   219  2.1800000000000D+00  0.0000000000000D+00  0.0000000000000D+00
   220  2.1900000000000D+00  0.0000000000000D+00  0.0000000000000D+00
   221  2.2000000000000D+00  0.0000000000000D+00  0.0000000000000D+00
   222  2.2100000000000D+00  0.0000000000000D+00  0.0000000000000D+00
   223  2.2200000000000D+00  0.0000000000000D+00  0.0000000000000D+00
   224  2.2300000000000D+00  0.0000000000000D+00  0.0000000000000D+00
   225  2.2400000000000D+00  0.0000000000000D+00  0.0000000000000D+00
   226  2.2500000000000D+00  0.0000000000000D+00  0.0000000000000D+00
   227  2.2600000000000D+00  0.0000000000000D+00  0.0000000000000D+00
   228  2.2700000000000D+00  0.0000000000000D+00  0.0000000000000D+00
   229  2.2800000000000D+00  0.0000000000000D+00  0.0000000000000D+00
   230  2.2900000000000D+00  0.0000000000000D+00  0.0000000000000D+00
   231  2.3000000000000D+00  0.0000000000000D+00  0.0000000000000D+00
   232  2.3100000000000D+00  0.0000000000000D+00  0.0000000000000D+00
   233  2.3200000000000D+00  0.0000000000000D+00  0.0000000000000D+00
   234  2.3300000000000D+00  0.0000000000000D+00  0.0000000000000D+00
   235  2.3400000000000D+00  0.0000000000000D+00  0.0000000000000D+00
   236  2.3500000000000D+00  0.0000000000000D+00  0.0000000000000D+00
   237  2.3600000000000D+00  0.0000000000000D+00  0.0000000000000D+00
   238  2.3700000000000D+00  0.0000000000000D+00  0.0000000000000D+00
   239  2.3800000000000D+00  0.0000000000000D+00  0.0000000000000D+00
   240  2.3900000000000D+00  0.0000000000000D+00  0.0000000000000D+00
   241  2.4000000000000D+00  0.0000000000000D+00  0.0000000000000D+00
   242  2.4100000000000D+00  0.0000000000000D+00  0.0000000000000D+00
   243  2.4200000000000D+00  0.0000000000000D+00  0.0000000000000D+00
   244  2.4300000000000D+00  0.0000000000000D+00  0.0000000000000D+00
   245  2.4400000000000D+00  0.0000000000000D+00  0.0000000000000D+00
   246  2.4500000000000D+00  0.0000000000000D+00  0.0000000000000D+00
   247  2.4600000000000D+00  0.0000000000000D+00  0.0000000000000D+00
   248  2.4700000000000D+00  0.0000000000000D+00  0.0000000000000D+00
   249  2.4800000000000D+00  0.0000000000000D+00  0.0000000000000D+00
   250  2.4900000000000D+00  0.0000000000000D+00  0.0000000000000D+00
   251  2.5000000000000D+00  0.0000000000000D+00  0.0000000000000D+00
   252  2.5100000000000D+00  0.0000000000000D+00  0.0000000000000D+00
   253  2.5200000000000D+00  0.0000000000000D+00  0.0000000000000D+00
   254  2.5300000000000D+00  0.0000000000000D+00  0.0000000000000D+00
   255  2.5400000000000D+00  0.0000000000000D+00  0.0000000000000D+00
   256  2.5500000000000D+00  0.0000000000000D+00  0.0000000000000D+00
   257  2.5600000000000D+00  0.0000000000000D+00  0.0000000000000D+00
   258  2.5700000000000D+00  0.0000000000000D+00  0.0000000000000D+00
   259  2.5800000000000D+00  0.0000000000000D+00  0.0000000000000D+00
   260  2.5900000000000D+00  0.0000000000000D+00  0.0000000000000D+00
   261  2.6000000000000D+00  0.0000000000000D+00  0.0000000000000D+00
   262  2.6100000000000D+00  0.0000000000000D+00  0.0000000000000D+00
   263  2.6200000000000D+00  0.0000000000000D+00  0.0000000000000D+00
   264  2.6300000000000D+00  0.0000000000000D+00  0.0000000000000D+00
   265  2.6400000000000D+00  0.0000000000000D+00  0.0000000000000D+00
   266  2.6500000000000D+00  0.0000000000000D+00  0.0000000000000D+00
   267  2.6600000000000D+00  0.0000000000000D+00  0.0000000000000D+00
   268  2.6700000000000D+00  0.0000000000000D+00  0.0000000000000D+00
   269  2.6800000000000D+00  0.0000000000000D+00  0.0000000000000D+00
   270  2.6900000000000D+00  0.0000000000000D+00  0.0000000000000D+00
   271  2.7000000000000D+00  0.0000000000000D+00  0.0000000000000D+00
   272  2.7100000000000D+00  0.0000000000000D+00  0.0000000000000D+00
   273  2.7200000000000D+00  0.0000000000000D+00  0.0000000000000D+00
   274  2.7300000000000D+00  0.0000000000000D+00  0.0000000000000D+00
   275  2.7400000000000D+00  0.0000000000000D+00  0.0000000000000D+00
   276  2.7500000000000D+00  0.0000000000000D+00  0.0000000000000D+00
   277  2.7600000000000D+00  0.0000000000000D+00  0.0000000000000D+00
   278  2.7700000000000D+00  0.0000000000000D+00  0.0000000000000D+00
   279  2.7800000000000D+00  0.0000000000000D+00  0.0000000000000D+00
   280  2.7900000000000D+00  0.0000000000000D+00  0.0000000000000D+00
   281  2.8000000000000D+00  0.0000000000000D+00  0.0000000000000D+00
   282  2.8100000000000D+00  0.0000000000000D+00  0.0000000000000D+00
   283  2.8200000000000D+00  0.0000000000000D+00  0.0000000000000D+00
   284  2.8300000000000D+00  0.0000000000000D+00  0.0000000000000D+00
   285  2.8400000000000D+00  0.0000000000000D+00  0.0000000000000D+00
   286  2.8500000000000D+00  0.0000000000000D+00  0.0000000000000D+00
   287  2.8600000000000D+00  0.0000000000000D+00  0.0000000000000D+00
   288  2.8700000000000D+00  0.0000000000000D+00  0.0000000000000D+00
   289  2.8800000000000D+00  0.0000000000000D+00  0.0000000000000D+00
   290  2.8900000000000D+00  0.0000000000000D+00  0.0000000000000D+00
   291  2.9000000000000D+00  0.0000000000000D+00  0.0000000000000D+00
   292  2.9100000000000D+00  0.0000000000000D+00  0.0000000000000D+00
   293  2.9200000000000D+00  0.0000000000000D+00  0.0000000000000D+00
   294  2.9300000000000D+00  0.0000000000000D+00  0.0000000000000D+00
   295  2.9400000000000D+00  0.0000000000000D+00  0.0000000000000D+00
   296  2.9500000000000D+00  0.0000000000000D+00  0.0000000000000D+00
   297  2.9600000000000D+00  0.0000000000000D+00  0.0000000000000D+00
   298  2.9700000000000D+00  0.0000000000000D+00  0.0000000000000D+00
   299  2.9800000000000D+00  0.0000000000000D+00  0.0000000000000D+00
   300  2.9900000000000D+00  0.0000000000000D+00  0.0000000000000D+00
   301  3.0000000000000D+00  0.0000000000000D+00  0.0000000000000D+00
   302  3.0100000000000D+00  0.0000000000000D+00  0.0000000000000D+00
   303  3.0200000000000D+00  0.0000000000000D+00  0.0000000000000D+00
   304  3.0300000000000D+00  0.0000000000000D+00  0.0000000000000D+00
   305  3.0400000000000D+00  0.0000000000000D+00  0.0000000000000D+00
   306  3.0500000000000D+00  0.0000000000000D+00  0.0000000000000D+00
   307  3.0600000000000D+00  0.0000000000000D+00  0.0000000000000D+00
   308  3.0700000000000D+00  0.0000000000000D+00  0.0000000000000D+00
   309  3.0800000000000D+00  0.0000000000000D+00  0.0000000000000D+00
   310  3.0900000000000D+00  0.0000000000000D+00  0.0000000000000D+00
   311  3.1000000000000D+00  0.0000000000000D+00  0.0000000000000D+00
   312  3.1100000000000D+00  0.0000000000000D+00  0.0000000000000D+00
   313  3.1200000000000D+00  0.0000000000000D+00  0.0000000000000D+00
   314  3.1300000000000D+00  0.0000000000000D+00  0.0000000000000D+00
   315  3.1400000000000D+00  0.0000000000000D+00  0.0000000000000D+00
   316  3.1500000000000D+00  0.0000000000000D+00  0.0000000000000D+00
   317  3.1600000000000D+00  0.0000000000000D+00  0.0000000000000D+00
   318  3.1700000000000D+00  0.0000000000000D+00  0.0000000000000D+00
   319  3.1800000000000D+00  0.0000000000000D+00  0.0000000000000D+00
   320  3.1900000000000D+00  0.0000000000000D+00  0.0000000000000D+00
   321  3.2000000000000D+00  0.0000000000000D+00  0.0000000000000D+00
   322  3.2100000000000D+00  0.0000000000000D+00  0.0000000000000D+00
   323  3.2200000000000D+00  0.0000000000000D+00  0.0000000000000D+00
   324  3.2300000000000D+00  0.0000000000000D+00  0.0000000000000D+00
   325  3.2400000000000D+00  0.0000000000000D+00  0.0000000000000D+00
   326  3.2500000000000D+00  0.0000000000000D+00  0.0000000000000D+00
   327  3.2600000000000D+00  0.0000000000000D+00  0.0000000000000D+00
   328  3.2700000000000D+00  0.0000000000000D+00  0.0000000000000D+00
   329  3.2800000000000D+00  0.0000000000000D+00  0.0000000000000D+00
   330  3.2900000000000D+00  0.0000000000000D+00  0.0000000000000D+00
   331  3.3000000000000D+00  0.0000000000000D+00  0.0000000000000D+00
   332  3.3100000000000D+00  0.0000000000000D+00  0.0000000000000D+00
   333  3.3200000000000D+00  0.0000000000000D+00  0.0000000000000D+00
   334  3.3300000000000D+00  0.0000000000000D+00  0.0000000000000D+00
   335  3.3400000000000D+00  0.0000000000000D+00  0.0000000000000D+00
   336  3.3500000000000D+00  0.0000000000000D+00  0.0000000000000D+00
   337  3.3600000000000D+00  0.0000000000000D+00  0.0000000000000D+00
   338  3.3700000000000D+00  0.0000000000000D+00  0.0000000000000D+00
   339  3.3800000000000D+00  0.0000000000000D+00  0.0000000000000D+00
   340  3.3900000000000D+00  0.0000000000000D+00  0.0000000000000D+00
   341  3.4000000000000D+00  0.0000000000000D+00  0.0000000000000D+00
   342  3.4100000000000D+00  0.0000000000000D+00  0.0000000000000D+00
   343  3.4200000000000D+00  0.0000000000000D+00  0.0000000000000D+00
   344  3.4300000000000D+00  0.0000000000000D+00  0.0000000000000D+00
   345  3.4400000000000D+00  0.0000000000000D+00  0.0000000000000D+00
   346  3.4500000000000D+00  0.0000000000000D+00  0.0000000000000D+00
   347  3.4600000000000D+00  0.0000000000000D+00  0.0000000000000D+00
   348  3.4700000000000D+00  0.0000000000000D+00  0.0000000000000D+00
   349  3.4800000000000D+00  0.0000000000000D+00  0.0000000000000D+00
   350  3.4900000000000D+00  0.0000000000000D+00  0.0000000000000D+00
   351  3.5000000000000D+00  0.0000000000000D+00  0.0000000000000D+00
   352  3.5100000000000D+00  0.0000000000000D+00  0.0000000000000D+00
   353  3.5200000000000D+00  0.0000000000000D+00  0.0000000000000D+00
   354  3.5300000000000D+00  0.0000000000000D+00  0.0000000000000D+00
   355  3.5400000000000D+00  0.0000000000000D+00  0.0000000000000D+00
   356  3.5500000000000D+00  0.0000000000000D+00  0.0000000000000D+00
   357  3.5600000000000D+00  0.0000000000000D+00  0.0000000000000D+00
   358  3.5700000000000D+00  0.0000000000000D+00  0.0000000000000D+00
   359  3.5800000000000D+00  0.0000000000000D+00  0.0000000000000D+00
   360  3.5900000000000D+00  0.0000000000000D+00  0.0000000000000D+00
   361  3.6000000000000D+00  0.0000000000000D+00  0.0000000000000D+00
   362  3.6100000000000D+00  0.0000000000000D+00  0.0000000000000D+00
   363  3.6200000000000D+00  0.0000000000000D+00  0.0000000000000D+00
   364  3.6300000000000D+00  0.0000000000000D+00  0.0000000000000D+00
   365  3.6400000000000D+00  0.0000000000000D+00  0.0000000000000D+00
   366  3.6500000000000D+00  0.0000000000000D+00  0.0000000000000D+00
   367  3.6600000000000D+00  0.0000000000000D+00  0.0000000000000D+00
   368  3.6700000000000D+00  0.0000000000000D+00  0.0000000000000D+00
   369  3.6800000000000D+00  0.0000000000000D+00  0.0000000000000D+00
   370  3.6900000000000D+00  0.0000000000000D+00  0.0000000000000D+00
   371  3.7000000000000D+00  0.0000000000000D+00  0.0000000000000D+00
   372  3.7100000000000D+00  0.0000000000000D+00  0.0000000000000D+00
   373  3.7200000000000D+00  0.0000000000000D+00  0.0000000000000D+00
   374  3.7300000000000D+00  0.0000000000000D+00  0.0000000000000D+00
   375  3.7400000000000D+00  0.0000000000000D+00  0.0000000000000D+00
   376  3.7500000000000D+00  0.0000000000000D+00  0.0000000000000D+00
   377  3.7600000000000D+00  0.0000000000000D+00  0.0000000000000D+00
   378  3.7700000000000D+00  0.0000000000000D+00  0.0000000000000D+00
   379  3.7800000000000D+00  0.0000000000000D+00  0.0000000000000D+00
   380  3.7900000000000D+00  0.0000000000000D+00  0.0000000000000D+00
   381  3.8000000000000D+00  0.0000000000000D+00  0.0000000000000D+00
   382  3.8100000000000D+00  0.0000000000000D+00  0.0000000000000D+00
   383  3.8200000000000D+00  0.0000000000000D+00  0.0000000000000D+00
   384  3.8300000000000D+00  0.0000000000000D+00  0.0000000000000D+00
   385  3.8400000000000D+00  0.0000000000000D+00  0.0000000000000D+00
   386  3.8500000000000D+00  0.0000000000000D+00  0.0000000000000D+00
   387  3.8600000000000D+00  0.0000000000000D+00  0.0000000000000D+00
   388  3.8700000000000D+00  0.0000000000000D+00  0.0000000000000D+00
   389  3.8800000000000D+00  0.0000000000000D+00  0.0000000000000D+00
   390  3.8900000000000D+00  0.0000000000000D+00  0.0000000000000D+00
   391  3.9000000000000D+00  0.0000000000000D+00  0.0000000000000D+00
   392  3.9100000000000D+00  0.0000000000000D+00  0.0000000000000D+00
   393  3.9200000000000D+00  0.0000000000000D+00  0.0000000000000D+00
   394  3.9300000000000D+00  0.0000000000000D+00  0.0000000000000D+00
   395  3.9400000000000D+00  0.0000000000000D+00  0.0000000000000D+00
   396  3.9500000000000D+00  0.0000000000000D+00  0.0000000000000D+00
   397  3.9600000000000D+00  0.0000000000000D+00  0.0000000000000D+00
   398  3.9700000000000D+00  0.0000000000000D+00  0.0000000000000D+00
   399  3.9800000000000D+00  0.0000000000000D+00  0.0000000000000D+00
   400  3.9900000000000D+00  0.0000000000000D+00  0.0000000000000D+00
   401  4.0000000000000D+00  0.0000000000000D+00  0.0000000000000D+00
   402  4.0100000000000D+00  0.0000000000000D+00  0.0000000000000D+00
   403  4.0200000000000D+00  0.0000000000000D+00  0.0000000000000D+00
   404  4.0300000000000D+00  0.0000000000000D+00  0.0000000000000D+00
   405  4.0400000000000D+00  0.0000000000000D+00  0.0000000000000D+00
   406  4.0500000000000D+00  0.0000000000000D+00  0.0000000000000D+00
   407  4.0600000000000D+00  0.0000000000000D+00  0.0000000000000D+00
   408  4.0700000000000D+00  0.0000000000000D+00  0.0000000000000D+00
   409  4.0800000000000D+00  0.0000000000000D+00  0.0000000000000D+00
   410  4.0900000000000D+00  0.0000000000000D+00  0.0000000000000D+00
   411  4.1000000000000D+00  0.0000000000000D+00  0.0000000000000D+00
   412  4.1100000000000D+00  0.0000000000000D+00  0.0000000000000D+00
   413  4.1200000000000D+00  0.0000000000000D+00  0.0000000000000D+00
   414  4.1300000000000D+00  0.0000000000000D+00  0.0000000000000D+00
   415  4.1400000000000D+00  0.0000000000000D+00  0.0000000000000D+00
   416  4.1500000000000D+00  0.0000000000000D+00  0.0000000000000D+00
   417  4.1600000000000D+00  0.0000000000000D+00  0.0000000000000D+00
   418  4.1700000000000D+00  0.0000000000000D+00  0.0000000000000D+00
   419  4.1800000000000D+00  0.0000000000000D+00  0.0000000000000D+00
   420  4.1900000000000D+00  0.0000000000000D+00  0.0000000000000D+00
   421  4.2000000000000D+00  0.0000000000000D+00  0.0000000000000D+00
   422  4.2100000000000D+00  0.0000000000000D+00  0.0000000000000D+00
   423  4.2200000000000D+00  0.0000000000000D+00  0.0000000000000D+00