Mn    ONCVPSP-3.3.1  r_core=   2.47442   2.47442   2.11898
     25.0000     15.0000      210904    zatom,zion,pspd
     8      11   2     4   600     0    pspcod,pspxc,lmax,lloc,mmax,r2well
  5.99000000  0.00000000  0.00000000    rchrg fchrg qchrg
     2     2     2     0    nproj
     3     1           extension_switch
     3     3     0    nprojso
   0                        -2.0249644018680D+00 -4.3819781545108D-01
     1  0.0000000000000D+00 -1.9634294190496D-13  1.1771916774705D-11
     2  1.0000000000000D-02  3.4132580168778D-02 -5.4384965786426D-02
     3  2.0000000000000D-02  6.8237105315361D-02 -1.0863536647133D-01
     4  3.0000000000000D-02  1.0228555315925D-01 -1.6261698597962D-01
     5  4.0000000000000D-02  1.3624996686023D-01 -2.1619630530668D-01
     6  5.0000000000000D-02  1.7010248763078D-01 -2.6924084860033D-01
     7  6.0000000000000D-02  2.0381538721940D-01 -3.2161952630749D-01
     8  7.0000000000000D-02  2.3736110022193D-01 -3.7320297442060D-01
     9  8.0000000000000D-02  2.7071225617835D-01 -4.2386388887135D-01
    10  9.0000000000000D-02  3.0384171141261D-01 -4.7347735413335D-01
    11  1.0000000000000D-01  3.3672258057341D-01 -5.2192116511352D-01
    12  1.1000000000000D-01  3.6932826783419D-01 -5.6907614143188D-01
    13  1.2000000000000D-01  4.0163249771093D-01 -6.1482643321267D-01
    14  1.3000000000000D-01  4.3360934545686D-01 -6.5905981753564D-01
    15  1.4000000000000D-01  4.6523326699363D-01 -7.0166798472392D-01
    16  1.5000000000000D-01  4.9647912833897D-01 -7.4254681367667D-01
    17  1.6000000000000D-01  5.2732223449158D-01 -7.8159663548666D-01
    18  1.7000000000000D-01  5.5773835773451D-01 -8.1872248461930D-01
    19  1.8000000000000D-01  5.8770376531896D-01 -8.5383433696630D-01
    20  1.9000000000000D-01  6.1719524649135D-01 -8.8684733412738D-01
    21  2.0000000000000D-01  6.4619013882701D-01 -9.1768199331443D-01
    22  2.1000000000000D-01  6.7466635383478D-01 -9.4626440231570D-01
    23  2.2000000000000D-01  7.0260240179794D-01 -9.7252639900288D-01
    24  2.3000000000000D-01  7.2997741581726D-01 -9.9640573490985D-01
    25  2.4000000000000D-01  7.5677117502357D-01 -1.0178462224593D+00
    26  2.5000000000000D-01  7.8296412692778D-01 -1.0367978654631D+00
    27  2.6000000000000D-01  8.0853740887755D-01 -1.0532169725713D+00
    28  2.7000000000000D-01  8.3347286859108D-01 -1.0670662533957D+00
    29  2.8000000000000D-01  8.5775308373926D-01 -1.0783148970854D+00
    30  2.9000000000000D-01  8.8136138054911D-01 -1.0869386331842D+00
    31  3.0000000000000D-01  9.0428185140226D-01 -1.0929197746505D+00
    32  3.1000000000000D-01  9.2649937140394D-01 -1.0962472429752D+00
    33  3.2000000000000D-01  9.4799961389889D-01 -1.0969165753839D+00
    34  3.3000000000000D-01  9.6876906491235D-01 -1.0949299141632D+00
    35  3.4000000000000D-01  9.8879503649554D-01 -1.0902959782027D+00
    36  3.5000000000000D-01  1.0080656789565D+00 -1.0830300168962D+00
    37  3.6000000000000D-01  1.0265699919591D+00 -1.0731537465976D+00
    38  3.7000000000000D-01  1.0442978344732D+00 -1.0606952698751D+00
    39  3.8000000000000D-01  1.0612399335634D+00 -1.0456889778609D+00
    40  3.9000000000000D-01  1.0773878920017D+00 -1.0281754360374D+00
    41  4.0000000000000D-01  1.0927341946940D+00 -1.0082012538517D+00
    42  4.1000000000000D-01  1.1072722139114D+00 -9.8581893859440D-01
    43  4.2000000000000D-01  1.1209962133176D+00 -9.6108673402360D-01
    44  4.3000000000000D-01  1.1339013507875D+00 -9.3406844425817D-01
    45  4.4000000000000D-01  1.1459836800120D+00 -9.0483324350383D-01
    46  4.5000000000000D-01  1.1572401508878D+00 -8.7345547221690D-01
    47  4.6000000000000D-01  1.1676686086908D+00 -8.4001442034623D-01
    48  4.7000000000000D-01  1.1772677920351D+00 -8.0459409832916D-01
    49  4.8000000000000D-01  1.1860373296199D+00 -7.6728299655030D-01
    50  4.9000000000000D-01  1.1939777357714D+00 -7.2817383400296D-01
    51  5.0000000000000D-01  1.2010904047843D+00 -6.8736329691994D-01
    52  5.1000000000000D-01  1.2073776040733D+00 -6.4495176816745D-01
    53  5.2000000000000D-01  1.2128424661455D+00 -6.0104304821853D-01
    54  5.3000000000000D-01  1.2174889794056D+00 -5.5574406854213D-01
    55  5.4000000000000D-01  1.2213219778087D+00 -5.0916459826376D-01
    56  5.5000000000000D-01  1.2243471293778D+00 -4.6141694496689D-01
    57  5.6000000000000D-01  1.2265709236031D+00 -4.1261565051806D-01
    58  5.7000000000000D-01  1.2280006577455D+00 -3.6287718280774D-01
    59  5.8000000000000D-01  1.2286444220627D+00 -3.1231962430642D-01
    60  5.9000000000000D-01  1.2285110839863D+00 -2.6106235833913D-01
    61  6.0000000000000D-01  1.2276102712711D+00 -2.0922575398345D-01
    62  6.1000000000000D-01  1.2259523541472D+00 -1.5693085049412D-01
    63  6.2000000000000D-01  1.2235484265028D+00 -1.0429904215385D-01
    64  6.3000000000000D-01  1.2204102861276D+00 -5.1451764442753D-02
    65  6.4000000000000D-01  1.2165504140508D+00  1.4898175909297D-03
    66  6.5000000000000D-01  1.2119819530070D+00  5.4405117887945D-02
    67  6.6000000000000D-01  1.2067186850653D+00  1.0717443400709D-01
    68  6.7000000000000D-01  1.2007750084583D+00  1.5967924698802D-01
    69  6.8000000000000D-01  1.1941659136515D+00  2.1180251562881D-01
    70  6.9000000000000D-01  1.1869069586894D+00  2.6342896438220D-01
    71  7.0000000000000D-01  1.1790142438631D+00  3.1444536409829D-01
    72  7.1000000000000D-01  1.1705043857389D+00  3.6474080486910D-01
    73  7.2000000000000D-01  1.1613944905933D+00  4.1420696025857D-01
    74  7.3000000000000D-01  1.1517021272975D+00  4.6273834223288D-01
    75  7.4000000000000D-01  1.1414452996981D+00  5.1023254613907D-01
    76  7.5000000000000D-01  1.1306424185398D+00  5.5659048511418D-01
    77  7.6000000000000D-01  1.1193122729777D+00  6.0171661334385D-01
    78  7.7000000000000D-01  1.1074740017273D+00  6.4551913762737D-01
    79  7.8000000000000D-01  1.0951470639002D+00  6.8791021674526D-01
    80  7.9000000000000D-01  1.0823512095764D+00  7.2880614816645D-01
    81  8.0000000000000D-01  1.0691064501606D+00  7.6812754167390D-01
    82  8.1000000000000D-01  1.0554330285748D+00  8.0579947953065D-01
    83  8.2000000000000D-01  1.0413513893362D+00  8.4175166285186D-01
    84  8.3000000000000D-01  1.0268821485710D+00  8.7591854389306D-01
    85  8.4000000000000D-01  1.0120460640158D+00  9.0823944401008D-01
    86  8.5000000000000D-01  9.9686400505539D-01  9.3865865709196D-01
    87  8.6000000000000D-01  9.8135692284900D-01  9.6712553831362D-01
    88  8.7000000000000D-01  9.6554582059381D-01  9.9359457810155D-01
    89  8.8000000000000D-01  9.4945172397658D-01  1.0180254612519D+00
    90  8.9000000000000D-01  9.3309565186213D-01  1.0403831111860D+00
    91  9.0000000000000D-01  9.1649858726761D-01  1.0606377193748D+00
    92  9.1000000000000D-01  8.9968144867076D-01  1.0787647600083D+00
    93  9.2000000000000D-01  8.8266506169954D-01  1.0947449900298D+00
    94  9.3000000000000D-01  8.6547013124951D-01  1.1085644347027D+00
    95  9.4000000000000D-01  8.4811721407468D-01  1.1202143589144D+00
    96  9.5000000000000D-01  8.3062669189629D-01  1.1296912244710D+00
    97  9.6000000000000D-01  8.1301874507273D-01  1.1369966336710D+00
    98  9.7000000000000D-01  7.9531332687298D-01  1.1421372594914D+00
    99  9.8000000000000D-01  7.7753013839405D-01  1.1451247627539D+00
   100  9.9000000000000D-01  7.5968860416205D-01  1.1459756966788D+00
   101  1.0000000000000D+00  7.4180784845449D-01  1.1447113992672D+00
   102  1.0100000000000D+00  7.2390667238037D-01  1.1413578739871D+00
   103  1.0200000000000D+00  7.0600353175236D-01  1.1359456592707D+00
   104  1.0300000000000D+00  6.8811651578423D-01  1.1285096873586D+00
   105  1.0400000000000D+00  6.7026332664448D-01  1.1190891330557D+00
   106  1.0500000000000D+00  6.5246125989544D-01  1.1077272529906D+00
   107  1.0600000000000D+00  6.3472718584508D-01  1.0944712159898D+00
   108  1.0700000000000D+00  6.1707753183696D-01  1.0793719252034D+00
   109  1.0800000000000D+00  5.9952826550155D-01  1.0624838326372D+00
   110  1.0900000000000D+00  5.8209487899017D-01  1.0438647467590D+00
   111  1.1000000000000D+00  5.6479237421069D-01  1.0235756338676D+00
   112  1.1100000000000D+00  5.4763524908201D-01  1.0016804139194D+00
   113  1.1200000000000D+00  5.3063748482190D-01  9.7824575151920D-01
   114  1.1300000000000D+00  5.1381253428119D-01  9.5334084278799D-01
   115  1.1400000000000D+00  4.9717331133445D-01  9.2703719882598D-01
   116  1.1500000000000D+00  4.8073218133538D-01  8.9940842648927D-01
   117  1.1600000000000D+00  4.6450095264277D-01  8.7053000719849D-01
   118  1.1700000000000D+00  4.4849086922108D-01  8.4047907449551D-01
   119  1.1800000000000D+00  4.3271260431680D-01  8.0933419105763D-01
   120  1.1900000000000D+00  4.1717625520993D-01  7.7717512587034D-01
   121  1.2000000000000D+00  4.0189133903769D-01  7.4408263224852D-01
   122  1.2100000000000D+00  3.8686678968558D-01  7.1013822738761D-01
   123  1.2200000000000D+00  3.7211095573828D-01  6.7542397410487D-01
   124  1.2300000000000D+00  3.5763159948088D-01  6.4002226541246D-01
   125  1.2400000000000D+00  3.4343589693965D-01  6.0401561255671D-01
   126  1.2500000000000D+00  3.2953043894844D-01  5.6748643712126D-01
   127  1.2600000000000D+00  3.1592123322499D-01  5.3051686776952D-01
   128  1.2700000000000D+00  3.0261370744061D-01  4.9318854219122D-01
   129  1.2800000000000D+00  2.8961271326344D-01  4.5558241477456D-01
   130  1.2900000000000D+00  2.7692253135403D-01  4.1777857049071D-01
   131  1.3000000000000D+00  2.6454687729126D-01  3.7985604547440D-01
   132  1.3100000000000D+00  2.5248890840363D-01  3.4189265472589D-01
   133  1.3200000000000D+00  2.4075123147952D-01  3.0396482731695D-01
   134  1.3300000000000D+00  2.2933591133006D-01  2.6614744949844D-01
   135  1.3400000000000D+00  2.1824448017455D-01  2.2851371601125D-01
   136  1.3500000000000D+00  2.0747794781828D-01  1.9113498988223D-01
   137  1.3600000000000D+00  1.9703681259215D-01  1.5408067099916D-01
   138  1.3700000000000D+00  1.8692107301992D-01  1.1741807362456D-01
   139  1.3800000000000D+00  1.7713024018042D-01  8.1212313050375D-02
   140  1.3900000000000D+00  1.6766335072973D-01  4.5526201539066D-02
   141  1.4000000000000D+00  1.5851898054697D-01  1.0420153585840D-02
   142  1.4100000000000D+00  1.4969525896859D-01 -2.4047899366313D-02
   143  1.4200000000000D+00  1.4118988357283D-01 -5.7822584816866D-02
   144  1.4300000000000D+00  1.3300013547733D-01 -9.0851155710393D-02
   145  1.4400000000000D+00  1.2512289511179D-01 -1.2308354758518D-01
   146  1.4500000000000D+00  1.1755465842663D-01 -1.5447242656856D-01
   147  1.4600000000000D+00  1.1029155349958D-01 -1.8497322824775D-01
   148  1.4700000000000D+00  1.0332935750052D-01 -2.1454418771762D-01
   149  1.4800000000000D+00  9.6663513976045D-02 -2.4314636095870D-01
   150  1.4900000000000D+00  9.0289150414262D-02 -2.7074363782061D-01
   151  1.5000000000000D+00  8.4201096051624D-02 -2.9730274695657D-01
   152  1.5100000000000D+00  7.8393899881816D-02 -3.2279325293791D-01
   153  1.5200000000000D+00  7.2861848830203D-02 -3.4718754605446D-01
   154  1.5300000000000D+00  6.7598986053481D-02 -3.7046082503874D-01
   155  1.5400000000000D+00  6.2599129329427D-02 -3.9259107328557D-01
   156  1.5500000000000D+00  5.7855889497793D-02 -4.1355902890479D-01
   157  1.5600000000000D+00  5.3362688917258D-02 -4.3334814916004D-01
   158  1.5700000000000D+00  4.9112779902772D-02 -4.5194456976070D-01
   159  1.5800000000000D+00  4.5099263107280D-02 -4.6933705953159D-01
   160  1.5900000000000D+00  4.1315105816802D-02 -4.8551697103193D-01
   161  1.6000000000000D+00  3.7753160121315D-02 -5.0047818763521D-01
   162  1.6100000000000D+00  3.4406180936112D-02 -5.1421706770924D-01
   163  1.6200000000000D+00  3.1266843834152D-02 -5.2673238641581D-01
   164  1.6300000000000D+00  2.8327762670517D-02 -5.3802527579581D-01
   165  1.6400000000000D+00  2.5581506957493D-02 -5.4809916369018D-01
   166  1.6500000000000D+00  2.3020618978003D-02 -5.5695971214677D-01
   167  1.6600000000000D+00  2.0637630594671D-02 -5.6461475591429D-01
   168  1.6700000000000D+00  1.8425079747799D-02 -5.7107424162241D-01
   169  1.6800000000000D+00  1.6375526600111D-02 -5.7635016830926D-01
   170  1.6900000000000D+00  1.4481569325872D-02 -5.8045652981984D-01
   171  1.7000000000000D+00  1.2735859503393D-02 -5.8340925979846D-01
   172  1.7100000000000D+00  1.1131117113383D-02 -5.8522617969983D-01
   173  1.7200000000000D+00  9.6601451024885D-03 -5.8592695061129D-01
   174  1.7300000000000D+00  8.3158435204864D-03 -5.8553302917853D-01
   175  1.7400000000000D+00  7.0912231897182D-03 -5.8406762851714D-01
   176  1.7500000000000D+00  5.9794189222397D-03 -5.8155568422706D-01
   177  1.7600000000000D+00  4.9737022423589D-03 -5.7802382649667D-01
   178  1.7700000000000D+00  4.0674936354012D-03 -5.7350035823622D-01
   179  1.7800000000000D+00  3.2543742831360D-03 -5.6801524027590D-01
   180  1.7900000000000D+00  2.5280973074399D-03 -5.6160008345682D-01
   181  1.8000000000000D+00  1.8825984894557D-03 -5.5428814860815D-01
   182  1.8100000000000D+00  1.3120064830621D-03 -5.4611435420844D-01
   183  1.8200000000000D+00  8.1065249986344D-04 -5.3711529257288D-01
   184  1.8300000000000D+00  3.7307947837637D-04 -5.2732925444911D-01
   185  1.8400000000000D+00 -5.9492722298720D-06 -5.1679626256542D-01
   186  1.8500000000000D+00 -3.3144195064551D-04 -5.0555811425075D-01
   187  1.8600000000000D+00 -6.0817065785920D-04 -4.9365843319608D-01
   188  1.8700000000000D+00 -8.4066431647463D-04 -4.8114273088831D-01
   189  1.8800000000000D+00 -1.0332020910557D-03 -4.6805847713550D-01
   190  1.8900000000000D+00 -1.1898069025993D-03 -4.5445519786281D-01
   191  1.9000000000000D+00 -1.3142417630791D-03 -4.4038448847787D-01
   192  1.9100000000000D+00 -1.4099993318498D-03 -4.2590033042932D-01
   193  1.9200000000000D+00 -1.4803083589270D-03 -4.1105875270334D-01
   194  1.9300000000000D+00 -1.5281246609782D-03 -3.9591815477785D-01
   195  1.9400000000000D+00 -1.5561086056823D-03 -3.8054018808386D-01
   196  1.9500000000000D+00 -1.5666283957385D-03 -3.6498962854719D-01
   197  1.9600000000000D+00 -1.5618210640154D-03 -3.4933197534516D-01
   198  1.9700000000000D+00 -1.5436306601378D-03 -3.3363200851844D-01
   199  1.9800000000000D+00 -1.5138374219277D-03 -3.1795259904881D-01
   200  1.9900000000000D+00 -1.4741255746287D-03 -3.0235203753287D-01
   201  2.0000000000000D+00 -1.4260774598246D-03 -2.8688431961446D-01
   202  2.0100000000000D+00 -1.3711607332350D-03 -2.7159971535416D-01
   203  2.0200000000000D+00 -1.3107234230948D-03 -2.5654504842243D-01
   204  2.0300000000000D+00 -1.2460083797142D-03 -2.4176325324294D-01
   205  2.0400000000000D+00 -1.1781490505998D-03 -2.2729368088617D-01
   206  2.0500000000000D+00 -1.1081746699276D-03 -2.1317205794753D-01
   207  2.0600000000000D+00 -1.0370129989786D-03 -1.9943056237788D-01
   208  2.0700000000000D+00 -9.6549388033850D-04 -1.8609788601989D-01
   209  2.0800000000000D+00 -8.9435311645330D-04 -1.7319930172540D-01
   210  2.0900000000000D+00 -8.2423663237245D-04 -1.6075673548666D-01
   211  2.1000000000000D+00 -7.5570481378545D-04 -1.4878884585069D-01
   212  2.1100000000000D+00 -6.8923706865021D-04 -1.3731110800276D-01
   213  2.1200000000000D+00 -6.2523648798551D-04 -1.2633590545590D-01
   214  2.1300000000000D+00 -5.6403459556014D-04 -1.1587262854089D-01
   215  2.1400000000000D+00 -5.0589620900291D-04 -1.0592777777788D-01
   216  2.1500000000000D+00 -4.5102423515598D-04 -9.6505076907314D-02
   217  2.1600000000000D+00 -3.9956453900765D-04 -8.7605589770570D-02
   218  2.1700000000000D+00 -3.5161073366130D-04 -7.9227844934349D-02
   219  2.1800000000000D+00 -3.0720888121242D-04 -7.1367967217368D-02
   220  2.1900000000000D+00 -2.6636219317267D-04 -6.4019812252215D-02
   221  2.2000000000000D+00 -2.2903550895289D-04 -5.7175109760485D-02
   222  2.2100000000000D+00 -1.9515972604660D-04 -5.0823609270826D-02
   223  2.2200000000000D+00 -1.6463607667735D-04 -4.4953230292433D-02
   224  2.2300000000000D+00 -1.3734019803516D-04 -3.9550217215793D-02
   225  2.2400000000000D+00 -1.1312611087311D-04 -3.4599295232321D-02
   226  2.2500000000000D+00 -9.1829959733997D-05 -3.0083829429717D-02
   227  2.2600000000000D+00 -7.3273581360445D-05 -2.5985984751354D-02
   228  2.2700000000000D+00 -5.7267925456894D-05 -2.2286885842791D-02
   229  2.2800000000000D+00 -4.3616213371022D-05 -1.8966776782769D-02
   230  2.2900000000000D+00 -3.2116948512923D-05 -1.6005179243319D-02
   231  2.3000000000000D+00 -2.2566720495008D-05 -1.3381048367488D-02
   232  2.3100000000000D+00 -1.4762783866847D-05 -1.1072924991878D-02
   233  2.3200000000000D+00 -8.5054713530818D-06 -9.0590848891200D-03
   234  2.3300000000000D+00 -3.6003875007300D-06 -7.3176821895371D-03
   235  2.3400000000000D+00  1.3959661085958D-07 -5.8268868919257D-03
   236  2.3500000000000D+00  2.8925240558367D-06 -4.5650179789727D-03
   237  2.3600000000000D+00  4.8257476719220D-06 -3.5106667319361D-03
   238  2.3700000000000D+00  6.0945060484235D-06 -2.6428133669263D-03
   239  2.3800000000000D+00  6.8406790844786D-06 -1.9409371100720D-03
   240  2.3900000000000D+00  7.1944946929568D-06 -1.3851199669641D-03
   241  2.4000000000000D+00  7.2702681854868D-06 -9.5612948573271D-04
   242  2.4100000000000D+00  7.1488020171947D-06 -6.3546095027208D-04
   243  2.4200000000000D+00  6.8776507800418D-06 -4.0517399695271D-04
   244  2.4300000000000D+00  6.5430643890708D-06 -2.4867764630118D-04
   245  2.4400000000000D+00  6.3129595858982D-06 -1.5121661059530D-04
   246  2.4500000000000D+00  6.3491404829107D-06 -9.9625054064415D-05
   247  2.4600000000000D+00  6.4522502347279D-06 -7.7773328327856D-05
   248  2.4700000000000D+00  6.1029692428710D-06 -6.7449428336192D-05
   249  2.4800000000000D+00  4.7716552739132D-06 -5.2486855181419D-05
   250  2.4900000000000D+00  2.6975302421568D-06 -3.0104860536579D-05
   251  2.5000000000000D+00  6.7364492452606D-07 -7.6915207195452D-06
   252  2.5100000000000D+00 -4.3689262276404D-07  4.6597077117067D-06
   253  2.5200000000000D+00 -5.6830055088667D-07  6.0804528434947D-06
   254  2.5300000000000D+00 -2.0251908304055D-07  2.1756778607442D-06
   255  2.5400000000000D+00  8.8545111799496D-08 -8.8588230382995D-07
   256  2.5500000000000D+00  1.3286146327785D-07 -1.3227293369533D-06
   257  2.5600000000000D+00  5.5556202043583D-08 -5.5082265104068D-07
   258  2.5700000000000D+00 -9.5218593654793D-09  1.0496410543766D-07
   259  2.5800000000000D+00 -1.6147267987665D-08  1.7799921995615D-07
   260  2.5900000000000D+00 -7.9548616946685D-09  8.7690324926278D-08
   261  2.6000000000000D+00  0.0000000000000D+00  0.0000000000000D+00
   262  2.6100000000000D+00  0.0000000000000D+00  0.0000000000000D+00
   263  2.6200000000000D+00  0.0000000000000D+00  0.0000000000000D+00
   264  2.6300000000000D+00  0.0000000000000D+00  0.0000000000000D+00
   265  2.6400000000000D+00  0.0000000000000D+00  0.0000000000000D+00
   266  2.6500000000000D+00  0.0000000000000D+00  0.0000000000000D+00
   267  2.6600000000000D+00  0.0000000000000D+00  0.0000000000000D+00
   268  2.6700000000000D+00  0.0000000000000D+00  0.0000000000000D+00
   269  2.6800000000000D+00  0.0000000000000D+00  0.0000000000000D+00
   270  2.6900000000000D+00  0.0000000000000D+00  0.0000000000000D+00
   271  2.7000000000000D+00  0.0000000000000D+00  0.0000000000000D+00
   272  2.7100000000000D+00  0.0000000000000D+00  0.0000000000000D+00
   273  2.7200000000000D+00  0.0000000000000D+00  0.0000000000000D+00
   274  2.7300000000000D+00  0.0000000000000D+00  0.0000000000000D+00
   275  2.7400000000000D+00  0.0000000000000D+00  0.0000000000000D+00
   276  2.7500000000000D+00  0.0000000000000D+00  0.0000000000000D+00
   277  2.7600000000000D+00  0.0000000000000D+00  0.0000000000000D+00
   278  2.7700000000000D+00  0.0000000000000D+00  0.0000000000000D+00
   279  2.7800000000000D+00  0.0000000000000D+00  0.0000000000000D+00
   280  2.7900000000000D+00  0.0000000000000D+00  0.0000000000000D+00
   281  2.8000000000000D+00  0.0000000000000D+00  0.0000000000000D+00
   282  2.8100000000000D+00  0.0000000000000D+00  0.0000000000000D+00
   283  2.8200000000000D+00  0.0000000000000D+00  0.0000000000000D+00
   284  2.8300000000000D+00  0.0000000000000D+00  0.0000000000000D+00
   285  2.8400000000000D+00  0.0000000000000D+00  0.0000000000000D+00
   286  2.8500000000000D+00  0.0000000000000D+00  0.0000000000000D+00
   287  2.8600000000000D+00  0.0000000000000D+00  0.0000000000000D+00
   288  2.8700000000000D+00  0.0000000000000D+00  0.0000000000000D+00
   289  2.8800000000000D+00  0.0000000000000D+00  0.0000000000000D+00
   290  2.8900000000000D+00  0.0000000000000D+00  0.0000000000000D+00
   291  2.9000000000000D+00  0.0000000000000D+00  0.0000000000000D+00
   292  2.9100000000000D+00  0.0000000000000D+00  0.0000000000000D+00
   293  2.9200000000000D+00  0.0000000000000D+00  0.0000000000000D+00
   294  2.9300000000000D+00  0.0000000000000D+00  0.0000000000000D+00
   295  2.9400000000000D+00  0.0000000000000D+00  0.0000000000000D+00
   296  2.9500000000000D+00  0.0000000000000D+00  0.0000000000000D+00
   297  2.9600000000000D+00  0.0000000000000D+00  0.0000000000000D+00
   298  2.9700000000000D+00  0.0000000000000D+00  0.0000000000000D+00
   299  2.9800000000000D+00  0.0000000000000D+00  0.0000000000000D+00
   300  2.9900000000000D+00  0.0000000000000D+00  0.0000000000000D+00
   301  3.0000000000000D+00  0.0000000000000D+00  0.0000000000000D+00
   302  3.0100000000000D+00  0.0000000000000D+00  0.0000000000000D+00
   303  3.0200000000000D+00  0.0000000000000D+00  0.0000000000000D+00
   304  3.0300000000000D+00  0.0000000000000D+00  0.0000000000000D+00
   305  3.0400000000000D+00  0.0000000000000D+00  0.0000000000000D+00
   306  3.0500000000000D+00  0.0000000000000D+00  0.0000000000000D+00
   307  3.0600000000000D+00  0.0000000000000D+00  0.0000000000000D+00
   308  3.0700000000000D+00  0.0000000000000D+00  0.0000000000000D+00
   309  3.0800000000000D+00  0.0000000000000D+00  0.0000000000000D+00
   310  3.0900000000000D+00  0.0000000000000D+00  0.0000000000000D+00
   311  3.1000000000000D+00  0.0000000000000D+00  0.0000000000000D+00
   312  3.1100000000000D+00  0.0000000000000D+00  0.0000000000000D+00
   313  3.1200000000000D+00  0.0000000000000D+00  0.0000000000000D+00
   314  3.1300000000000D+00  0.0000000000000D+00  0.0000000000000D+00
   315  3.1400000000000D+00  0.0000000000000D+00  0.0000000000000D+00
   316  3.1500000000000D+00  0.0000000000000D+00  0.0000000000000D+00
   317  3.1600000000000D+00  0.0000000000000D+00  0.0000000000000D+00
   318  3.1700000000000D+00  0.0000000000000D+00  0.0000000000000D+00
   319  3.1800000000000D+00  0.0000000000000D+00  0.0000000000000D+00
   320  3.1900000000000D+00  0.0000000000000D+00  0.0000000000000D+00
   321  3.2000000000000D+00  0.0000000000000D+00  0.0000000000000D+00
   322  3.2100000000000D+00  0.0000000000000D+00  0.0000000000000D+00
   323  3.2200000000000D+00  0.0000000000000D+00  0.0000000000000D+00
   324  3.2300000000000D+00  0.0000000000000D+00  0.0000000000000D+00
   325  3.2400000000000D+00  0.0000000000000D+00  0.0000000000000D+00
   326  3.2500000000000D+00  0.0000000000000D+00  0.0000000000000D+00
   327  3.2600000000000D+00  0.0000000000000D+00  0.0000000000000D+00
   328  3.2700000000000D+00  0.0000000000000D+00  0.0000000000000D+00
   329  3.2800000000000D+00  0.0000000000000D+00  0.0000000000000D+00
   330  3.2900000000000D+00  0.0000000000000D+00  0.0000000000000D+00
   331  3.3000000000000D+00  0.0000000000000D+00  0.0000000000000D+00
   332  3.3100000000000D+00  0.0000000000000D+00  0.0000000000000D+00
   333  3.3200000000000D+00  0.0000000000000D+00  0.0000000000000D+00
   334  3.3300000000000D+00  0.0000000000000D+00  0.0000000000000D+00
   335  3.3400000000000D+00  0.0000000000000D+00  0.0000000000000D+00
   336  3.3500000000000D+00  0.0000000000000D+00  0.0000000000000D+00
   337  3.3600000000000D+00  0.0000000000000D+00  0.0000000000000D+00
   338  3.3700000000000D+00  0.0000000000000D+00  0.0000000000000D+00
   339  3.3800000000000D+00  0.0000000000000D+00  0.0000000000000D+00
   340  3.3900000000000D+00  0.0000000000000D+00  0.0000000000000D+00
   341  3.4000000000000D+00  0.0000000000000D+00  0.0000000000000D+00
   342  3.4100000000000D+00  0.0000000000000D+00  0.0000000000000D+00
   343  3.4200000000000D+00  0.0000000000000D+00  0.0000000000000D+00
   344  3.4300000000000D+00  0.0000000000000D+00  0.0000000000000D+00
   345  3.4400000000000D+00  0.0000000000000D+00  0.0000000000000D+00
   346  3.4500000000000D+00  0.0000000000000D+00  0.0000000000000D+00
   347  3.4600000000000D+00  0.0000000000000D+00  0.0000000000000D+00
   348  3.4700000000000D+00  0.0000000000000D+00  0.0000000000000D+00
   349  3.4800000000000D+00  0.0000000000000D+00  0.0000000000000D+00
   350  3.4900000000000D+00  0.0000000000000D+00  0.0000000000000D+00
   351  3.5000000000000D+00  0.0000000000000D+00  0.0000000000000D+00
   352  3.5100000000000D+00  0.0000000000000D+00  0.0000000000000D+00
   353  3.5200000000000D+00  0.0000000000000D+00  0.0000000000000D+00
   354  3.5300000000000D+00  0.0000000000000D+00  0.0000000000000D+00
   355  3.5400000000000D+00  0.0000000000000D+00  0.0000000000000D+00
   356  3.5500000000000D+00  0.0000000000000D+00  0.0000000000000D+00
   357  3.5600000000000D+00  0.0000000000000D+00  0.0000000000000D+00
   358  3.5700000000000D+00  0.0000000000000D+00  0.0000000000000D+00
   359  3.5800000000000D+00  0.0000000000000D+00  0.0000000000000D+00
   360  3.5900000000000D+00  0.0000000000000D+00  0.0000000000000D+00
   361  3.6000000000000D+00  0.0000000000000D+00  0.0000000000000D+00
   362  3.6100000000000D+00  0.0000000000000D+00  0.0000000000000D+00
   363  3.6200000000000D+00  0.0000000000000D+00  0.0000000000000D+00
   364  3.6300000000000D+00  0.0000000000000D+00  0.0000000000000D+00
   365  3.6400000000000D+00  0.0000000000000D+00  0.0000000000000D+00
   366  3.6500000000000D+00  0.0000000000000D+00  0.0000000000000D+00
   367  3.6600000000000D+00  0.0000000000000D+00  0.0000000000000D+00
   368  3.6700000000000D+00  0.0000000000000D+00  0.0000000000000D+00
   369  3.6800000000000D+00  0.0000000000000D+00  0.0000000000000D+00
   370  3.6900000000000D+00  0.0000000000000D+00  0.0000000000000D+00
   371  3.7000000000000D+00  0.0000000000000D+00  0.0000000000000D+00
   372  3.7100000000000D+00  0.0000000000000D+00  0.0000000000000D+00
   373  3.7200000000000D+00  0.0000000000000D+00  0.0000000000000D+00
   374  3.7300000000000D+00  0.0000000000000D+00  0.0000000000000D+00
   375  3.7400000000000D+00  0.0000000000000D+00  0.0000000000000D+00
   376  3.7500000000000D+00  0.0000000000000D+00  0.0000000000000D+00
   377  3.7600000000000D+00  0.0000000000000D+00  0.0000000000000D+00
   378  3.7700000000000D+00  0.0000000000000D+00  0.0000000000000D+00
   379  3.7800000000000D+00  0.0000000000000D+00  0.0000000000000D+00
   380  3.7900000000000D+00  0.0000000000000D+00  0.0000000000000D+00
   381  3.8000000000000D+00  0.0000000000000D+00  0.0000000000000D+00
   382  3.8100000000000D+00  0.0000000000000D+00  0.0000000000000D+00
   383  3.8200000000000D+00  0.0000000000000D+00  0.0000000000000D+00
   384  3.8300000000000D+00  0.0000000000000D+00  0.0000000000000D+00
   385  3.8400000000000D+00  0.0000000000000D+00  0.0000000000000D+00
   386  3.8500000000000D+00  0.0000000000000D+00  0.0000000000000D+00
   387  3.8600000000000D+00  0.0000000000000D+00  0.0000000000000D+00
   388  3.8700000000000D+00  0.0000000000000D+00  0.0000000000000D+00
   389  3.8800000000000D+00  0.0000000000000D+00  0.0000000000000D+00
   390  3.8900000000000D+00  0.0000000000000D+00  0.0000000000000D+00
   391  3.9000000000000D+00  0.0000000000000D+00  0.0000000000000D+00
   392  3.9100000000000D+00  0.0000000000000D+00  0.0000000000000D+00
   393  3.9200000000000D+00  0.0000000000000D+00  0.0000000000000D+00
   394  3.9300000000000D+00  0.0000000000000D+00  0.0000000000000D+00
   395  3.9400000000000D+00  0.0000000000000D+00  0.0000000000000D+00
   396  3.9500000000000D+00  0.0000000000000D+00  0.0000000000000D+00
   397  3.9600000000000D+00  0.0000000000000D+00  0.0000000000000D+00
   398  3.9700000000000D+00  0.0000000000000D+00  0.0000000000000D+00
   399  3.9800000000000D+00  0.0000000000000D+00  0.0000000000000D+00
   400  3.9900000000000D+00  0.0000000000000D+00  0.0000000000000D+00
   401  4.0000000000000D+00  0.0000000000000D+00  0.0000000000000D+00
   402  4.0100000000000D+00  0.0000000000000D+00  0.0000000000000D+00
   403  4.0200000000000D+00  0.0000000000000D+00  0.0000000000000D+00
   404  4.0300000000000D+00  0.0000000000000D+00  0.0000000000000D+00
   405  4.0400000000000D+00  0.0000000000000D+00  0.0000000000000D+00
   406  4.0500000000000D+00  0.0000000000000D+00  0.0000000000000D+00
   407  4.0600000000000D+00  0.0000000000000D+00  0.0000000000000D+00
   408  4.0700000000000D+00  0.0000000000000D+00  0.0000000000000D+00
   409  4.0800000000000D+00  0.0000000000000D+00  0.0000000000000D+00
   410  4.0900000000000D+00  0.0000000000000D+00  0.0000000000000D+00
   411  4.1000000000000D+00  0.0000000000000D+00  0.0000000000000D+00
   412  4.1100000000000D+00  0.0000000000000D+00  0.0000000000000D+00
   413  4.1200000000000D+00  0.0000000000000D+00  0.0000000000000D+00
   414  4.1300000000000D+00  0.0000000000000D+00  0.0000000000000D+00
   415  4.1400000000000D+00  0.0000000000000D+00  0.0000000000000D+00
   416  4.1500000000000D+00  0.0000000000000D+00  0.0000000000000D+00
   417  4.1600000000000D+00  0.0000000000000D+00  0.0000000000000D+00
   418  4.1700000000000D+00  0.0000000000000D+00  0.0000000000000D+00
   419  4.1800000000000D+00  0.0000000000000D+00  0.0000000000000D+00
   420  4.1900000000000D+00  0.0000000000000D+00  0.0000000000000D+00
   421  4.2000000000000D+00  0.0000000000000D+00  0.0000000000000D+00
   422  4.2100000000000D+00  0.0000000000000D+00  0.0000000000000D+00