N     ONCVPSP-3.3.1  r_core=   1.60510   1.53031
      7.0000      5.0000      210904    zatom,zion,pspd
     8      11   1     4   600     0    pspcod,pspxc,lmax,lloc,mmax,r2well
  5.99000000  0.00000000  0.00000000    rchrg fchrg qchrg
     2     2     0     0    nproj
     3     1           extension_switch
     3     0     0    nprojso
   0                         1.0048042043183D+00  7.1408141867385D+00
     1  0.0000000000000D+00 -1.9550766561238D-10  4.2727155147304D-11
     2  1.0000000000000D-02 -3.8290214663453D-02  8.6716368838625D-02
     3  2.0000000000000D-02 -7.6355469195226D-02  1.7320494040500D-01
     4  3.0000000000000D-02 -1.1397155438958D-01  2.5923859436126D-01
     5  4.0000000000000D-02 -1.5091576341284D-01  3.4459156299814D-01
     6  5.0000000000000D-02 -1.8696764423914D-01  4.2904010443775D-01
     7  6.0000000000000D-02 -2.2190975344413D-01  5.1236317207110D-01
     8  7.0000000000000D-02 -2.5552841157573D-01  5.9434307892401D-01
     9  8.0000000000000D-02 -2.8761446012550D-01  6.7476615560199D-01
    10  9.0000000000000D-02 -3.1796401988542D-01  7.5342340041334D-01
    11  1.0000000000000D-01 -3.4637925019712D-01  8.3011112020975D-01
    12  1.1000000000000D-01 -3.7266910828775D-01  9.0463156041787D-01
    13  1.2000000000000D-01 -3.9665010754397D-01  9.7679352266375D-01
    14  1.3000000000000D-01 -4.1814707320872D-01  1.0464129683175D+00
    15  1.4000000000000D-01 -4.3699389360011D-01  1.1133136062087D+00
    16  1.5000000000000D-01 -4.5303426455461D-01  1.1773274626870D+00
    17  1.6000000000000D-01 -4.6612242439454D-01  1.2382954321280D+00
    18  1.7000000000000D-01 -4.7612387631940D-01  1.2960678059128D+00
    19  1.8000000000000D-01 -4.8291609472886D-01  1.3505047778483D+00
    20  1.9000000000000D-01 -4.8638921160968D-01  1.4014769239357D+00
    21  2.0000000000000D-01 -4.8644667876637D-01  1.4488656543504D+00
    22  2.1000000000000D-01 -4.8300590135278D-01  1.4925636354639D+00
    23  2.2000000000000D-01 -4.7599883787608D-01  1.5324751797139D+00
    24  2.3000000000000D-01 -4.6537256160202D-01  1.5685166011294D+00
    25  2.4000000000000D-01 -4.5108977809657D-01  1.6006165343276D+00
    26  2.5000000000000D-01 -4.3312929350021D-01  1.6287162148308D+00
    27  2.6000000000000D-01 -4.1148642805168D-01  1.6527697186061D+00
    28  2.7000000000000D-01 -3.8617336936191D-01  1.6727441588006D+00
    29  2.8000000000000D-01 -3.5721945999055D-01  1.6886198377407D+00
    30  2.9000000000000D-01 -3.2467141399912D-01  1.7003903523838D+00
    31  3.0000000000000D-01 -2.8859345734784D-01  1.7080626515460D+00
    32  3.1000000000000D-01 -2.4906738727025D-01  1.7116570433992D+00
    33  3.2000000000000D-01 -2.0619254609915D-01  1.7112071519119D+00
    34  3.3000000000000D-01 -1.6008570542944D-01  1.7067598211191D+00
    35  3.4000000000000D-01 -1.1088085698691D-01  1.6983749663362D+00
    36  3.5000000000000D-01 -5.8728907122577D-02  1.6861253716819D+00
    37  3.6000000000000D-01 -3.7972724681342D-03  1.6700964335447D+00
    38  3.7000000000000D-01  5.3730625036163D-02  1.6503858499136D+00
    39  3.8000000000000D-01  1.1365596479915D-01  1.6271032557985D+00
    40  3.9000000000000D-01  1.7576523620059D-01  1.6003698052775D+00
    41  4.0000000000000D-01  2.3983104863506D-01  1.5703177010387D+00
    42  4.1000000000000D-01  3.0561304157996D-01  1.5370896726167D+00
    43  4.2000000000000D-01  3.7285889240935D-01  1.5008384048664D+00
    44  4.3000000000000D-01  4.4130541877652D-01  1.4617259185581D+00
    45  4.4000000000000D-01  5.1067977148293D-01  1.4199229053228D+00
    46  4.5000000000000D-01  5.8070071284657D-01  1.3756080195135D+00
    47  4.6000000000000D-01  6.5107997469027D-01  1.3289671298839D+00
    48  4.7000000000000D-01  7.2152368920063D-01  1.2801925343038D+00
    49  4.8000000000000D-01  7.9173388506807D-01  1.2294821410439D+00
    50  4.9000000000000D-01  8.6141004052213D-01  1.1770386204514D+00
    51  5.0000000000000D-01  9.3025068413013D-01  1.1230685311108D+00
    52  5.1000000000000D-01  9.9795503354201D-01  1.0677814248363D+00
    53  5.2000000000000D-01  1.0642246617496D+00  1.0113889350609D+00
    54  5.3000000000000D-01  1.1287651798910D+00  9.5410385338760D-01
    55  5.4000000000000D-01  1.1912879251815D+00  8.9613919922753D-01
    56  5.5000000000000D-01  1.2515116421914D+00  8.3770728758449D-01
    57  5.6000000000000D-01  1.3091641454374D+00  7.7901880013765D-01
    58  5.7000000000000D-01  1.3639839510946D+00  7.2028186483461D-01
    59  5.8000000000000D-01  1.4157218655935D+00  6.6170114922638D-01
    60  5.9000000000000D-01  1.4641425189315D+00  6.0347697275692D-01
    61  6.0000000000000D-01  1.5090258307057D+00  5.4580444316101D-01
    62  6.1000000000000D-01  1.5501683971676D+00  4.8887262202452D-01
    63  6.2000000000000D-01  1.5873847880069D+00  4.3286372442296D-01
    64  6.3000000000000D-01  1.6205087420881D+00  3.7795235737429D-01
    65  6.4000000000000D-01  1.6493942519907D+00  3.2430480162623D-01
    66  6.5000000000000D-01  1.6739165279319D+00  2.7207834104328D-01
    67  6.6000000000000D-01  1.6939728324853D+00  2.2142064356866D-01
    68  6.7000000000000D-01  1.7094831784201D+00  1.7246919741512D-01
    69  6.8000000000000D-01  1.7203908829998D+00  1.2535080578316D-01
    70  6.9000000000000D-01  1.7266629731512D+00  8.0181143024513D-02
    71  7.0000000000000D-01  1.7282904370676D+00  3.7064374761437D-02
    72  7.1000000000000D-01  1.7252883189966D+00 -3.9071559534430D-03
    73  7.2000000000000D-01  1.7176956552195D+00 -4.2653174800615D-02
    74  7.3000000000000D-01  1.7055752504920D+00 -7.9105653501550D-02
    75  7.4000000000000D-01  1.6890132955099D+00 -1.1320891756212D-01
    76  7.5000000000000D-01  1.6681188272607D+00 -1.4491968421791D-01
    77  7.6000000000000D-01  1.6430230354059D+00 -1.7420703082259D-01
    78  7.7000000000000D-01  1.6138784191076D+00 -2.0105229439504D-01
    79  7.8000000000000D-01  1.5808577999434D+00 -2.2544890350560D-01
    80  7.9000000000000D-01  1.5441531977341D+00 -2.4740214413604D-01
    81  8.0000000000000D-01  1.5039745772331D+00 -2.6692886158552D-01
    82  8.1000000000000D-01  1.4605484746719D+00 -2.8405710091276D-01
    83  8.2000000000000D-01  1.4141165141243D+00 -2.9882568879866D-01
    84  8.3000000000000D-01  1.3649338245157D+00 -3.1128376007978D-01
    85  8.4000000000000D-01  1.3132673688718D+00 -3.2149023253857D-01
    86  8.5000000000000D-01  1.2593941980472D+00 -3.2951323383731D-01
    87  8.6000000000000D-01  1.2035996417057D+00 -3.3542948474704D-01
    88  8.7000000000000D-01  1.1461754497220D+00 -3.3932364304811D-01
    89  8.8000000000000D-01  1.0874178974446D+00 -3.4128761266244D-01
    90  8.9000000000000D-01  1.0276258683917D+00 -3.4141982271907D-01
    91  9.0000000000000D-01  9.6709892794371D-01 -3.3982448135158D-01
    92  9.1000000000000D-01  9.0613540145637D-01 -3.3661080907860D-01
    93  9.2000000000000D-01  8.4503046993305D-01 -3.3189225662688D-01
    94  9.3000000000000D-01  7.8407429598127D-01 -3.2578571201966D-01
    95  9.4000000000000D-01  7.2355019223222D-01 -3.1841070167315D-01
    96  9.5000000000000D-01  6.6373284373146D-01 -3.0988859012164D-01
    97  9.6000000000000D-01  6.0488659502341D-01 -3.0034178282877D-01
    98  9.7000000000000D-01  5.4726381174450D-01 -2.8989293633805D-01
    99  9.8000000000000D-01  4.9110332556839D-01 -2.7866417978382D-01
   100  9.9000000000000D-01  4.3662897024049D-01 -2.6677635150701D-01
   101  1.0000000000000D+00  3.8404821528903D-01 -2.5434825422142D-01
   102  1.0100000000000D+00  3.3355090278110D-01 -2.4149593184946D-01
   103  1.0200000000000D+00  2.8530809121927D-01 -2.2833197079627D-01
   104  1.0300000000000D+00  2.3947100937655D-01 -2.1496482806478D-01
   105  1.0400000000000D+00  1.9617012150058D-01 -2.0149818821919D-01
   106  1.0500000000000D+00  1.5551430410551D-01 -1.8803035084751D-01
   107  1.0600000000000D+00  1.1759013309970D-01 -1.7465364973059D-01
   108  1.0700000000000D+00  8.2461278818529D-02 -1.6145390456095D-01
   109  1.0800000000000D+00  5.0168005250719D-02 -1.4850990565171D-01
   110  1.0900000000000D+00  2.0726764824220D-02 -1.3589293076265D-01
   111  1.1000000000000D+00 -5.8701115051054D-03 -1.2366629493556D-01
   112  1.1100000000000D+00 -2.9654548815627D-02 -1.1188495571207D-01
   113  1.1200000000000D+00 -5.0683096776131D-02 -1.0059506917961D-01
   114  1.1300000000000D+00 -6.9036793296942D-02 -8.9833687513565D-02
   115  1.1400000000000D+00 -8.4816038898029D-02 -7.9629704569488D-02
   116  1.1500000000000D+00 -9.8134530028299D-02 -7.0005166144163D-02
   117  1.1600000000000D+00 -1.0911527012277D-01 -6.0976157843259D-02
   118  1.1700000000000D+00 -1.1788999653907D-01 -5.2552904675976D-02
   119  1.1800000000000D+00 -1.2459753869302D-01 -4.4740144128510D-02
   120  1.1900000000000D+00 -1.2938243968551D-01 -3.7537460060197D-02
   121  1.2000000000000D+00 -1.3239351772464D-01 -3.0939651609555D-02
   122  1.2100000000000D+00 -1.3378245515663D-01 -2.4937115633948D-02
   123  1.2200000000000D+00 -1.3370241000624D-01 -1.9516242924875D-02
   124  1.2300000000000D+00 -1.3230666552526D-01 -1.4659823453471D-02
   125  1.2400000000000D+00 -1.2974732972589D-01 -1.0347456695677D-02
   126  1.2500000000000D+00 -1.2617409674785D-01 -6.5559630850281D-03
   127  1.2600000000000D+00 -1.2173308034746D-01 -3.2597929290538D-03
   128  1.2700000000000D+00 -1.1656572893691D-01 -4.3142932947322D-04
   129  1.2800000000000D+00 -1.1080783137462D-01  1.9582183258256D-03
   130  1.2900000000000D+00 -1.0458862055649D-01  3.9394332551527D-03
   131  1.3000000000000D+00 -9.8029980728986D-02  5.5433252314015D-03
   132  1.3100000000000D+00 -9.1245764609141D-02  6.8014823174267D-03
   133  1.3200000000000D+00 -8.4341223226104D-02  7.7456423522705D-03
   134  1.3300000000000D+00 -7.7412550747434D-02  8.4073859681201D-03
   135  1.3400000000000D+00 -7.0546546721454D-02  8.8178529849853D-03
   136  1.3500000000000D+00 -6.3820394087891D-02  9.0074829786927D-03
   137  1.3600000000000D+00 -5.7301552168033D-02  9.0057810243366D-03
   138  1.3700000000000D+00 -5.1047762473047D-02  8.8411092834211D-03
   139  1.3800000000000D+00 -4.5107161943610D-02  8.5405042131976D-03
   140  1.3900000000000D+00 -3.9518500129890D-02  8.1295196974794D-03
   141  1.4000000000000D+00 -3.4311453155653D-02  7.6320954017384D-03
   142  1.4100000000000D+00 -2.9507027100291D-02  7.0704495504750D-03
   143  1.4200000000000D+00 -2.5118043932446D-02  6.4649955190280D-03
   144  1.4300000000000D+00 -2.1149699360404D-02  5.8342804771605D-03
   145  1.4400000000000D+00 -1.7600184506276D-02  5.1949450929506D-03
   146  1.4500000000000D+00 -1.4461360228072D-02  4.5617023746566D-03
   147  1.4600000000000D+00 -1.1719473814796D-02  3.9473339044566D-03
   148  1.4700000000000D+00 -9.3559070633876D-03  3.3627016366312D-03
   149  1.4800000000000D+00 -7.3479444376712D-03  2.8167730289888D-03
   150  1.4900000000000D+00 -5.6695500843651D-03  2.3166576019790D-03
   151  1.5000000000000D+00 -4.2921425460960D-03  1.8676526279726D-03
   152  1.5100000000000D+00 -3.1853563261445D-03  1.4732959512716D-03
   153  1.5200000000000D+00 -2.3177789973086D-03  1.1354236485508D-03
   154  1.5300000000000D+00 -1.6576551771140D-03  8.5423078681705D-04
   155  1.5400000000000D+00 -1.1735449713331D-03  6.2833280430681D-04
   156  1.5500000000000D+00 -8.3509715863161D-04  4.5489604713495D-04
   157  1.5600000000000D+00 -6.1355874211456D-04  3.2968093295921D-04
   158  1.5700000000000D+00 -4.7696034199066D-04  2.4479377216199D-04
   159  1.5800000000000D+00 -4.0468669291253D-04  1.9490514539324D-04
   160  1.5900000000000D+00 -4.0457779418192D-04  1.8498810107571D-04
   161  1.6000000000000D+00 -4.1708233442473D-04  1.8712268746381D-04
   162  1.6100000000000D+00 -2.9931045508902D-04  1.3389888440673D-04
   163  1.6200000000000D+00 -8.0400450982653D-05  3.5966100893251D-05
   164  1.6300000000000D+00  3.7514182030666D-05 -1.6732831302515D-05
   165  1.6400000000000D+00  1.9786546825926D-05 -8.8227363522263D-06
   166  1.6500000000000D+00 -8.2542638426442D-06  3.6795811576784D-06
   167  1.6600000000000D+00 -4.5129702022940D-06  2.0111978783645D-06
   168  1.6700000000000D+00  9.7564591470084D-07 -4.3690395818847D-07
   169  1.6800000000000D+00  5.4723626311214D-07 -2.4505784918013D-07
   170  1.6900000000000D+00  0.0000000000000D+00  0.0000000000000D+00
   171  1.7000000000000D+00  0.0000000000000D+00  0.0000000000000D+00
   172  1.7100000000000D+00  0.0000000000000D+00  0.0000000000000D+00
   173  1.7200000000000D+00  0.0000000000000D+00  0.0000000000000D+00
   174  1.7300000000000D+00  0.0000000000000D+00  0.0000000000000D+00
   175  1.7400000000000D+00  0.0000000000000D+00  0.0000000000000D+00
   176  1.7500000000000D+00  0.0000000000000D+00  0.0000000000000D+00
   177  1.7600000000000D+00  0.0000000000000D+00  0.0000000000000D+00
   178  1.7700000000000D+00  0.0000000000000D+00  0.0000000000000D+00
   179  1.7800000000000D+00  0.0000000000000D+00  0.0000000000000D+00
   180  1.7900000000000D+00  0.0000000000000D+00  0.0000000000000D+00
   181  1.8000000000000D+00  0.0000000000000D+00  0.0000000000000D+00
   182  1.8100000000000D+00  0.0000000000000D+00  0.0000000000000D+00
   183  1.8200000000000D+00  0.0000000000000D+00  0.0000000000000D+00
   184  1.8300000000000D+00  0.0000000000000D+00  0.0000000000000D+00
   185  1.8400000000000D+00  0.0000000000000D+00  0.0000000000000D+00
   186  1.8500000000000D+00  0.0000000000000D+00  0.0000000000000D+00
   187  1.8600000000000D+00  0.0000000000000D+00  0.0000000000000D+00
   188  1.8700000000000D+00  0.0000000000000D+00  0.0000000000000D+00
   189  1.8800000000000D+00  0.0000000000000D+00  0.0000000000000D+00
   190  1.8900000000000D+00  0.0000000000000D+00  0.0000000000000D+00
   191  1.9000000000000D+00  0.0000000000000D+00  0.0000000000000D+00
   192  1.9100000000000D+00  0.0000000000000D+00  0.0000000000000D+00
   193  1.9200000000000D+00  0.0000000000000D+00  0.0000000000000D+00
   194  1.9300000000000D+00  0.0000000000000D+00  0.0000000000000D+00
   195  1.9400000000000D+00  0.0000000000000D+00  0.0000000000000D+00
   196  1.9500000000000D+00  0.0000000000000D+00  0.0000000000000D+00
   197  1.9600000000000D+00  0.0000000000000D+00  0.0000000000000D+00
   198  1.9700000000000D+00  0.0000000000000D+00  0.0000000000000D+00
   199  1.9800000000000D+00  0.0000000000000D+00  0.0000000000000D+00
   200  1.9900000000000D+00  0.0000000000000D+00  0.0000000000000D+00
   201  2.0000000000000D+00  0.0000000000000D+00  0.0000000000000D+00
   202  2.0100000000000D+00  0.0000000000000D+00  0.0000000000000D+00
   203  2.0200000000000D+00  0.0000000000000D+00  0.0000000000000D+00
   204  2.0300000000000D+00  0.0000000000000D+00  0.0000000000000D+00
   205  2.0400000000000D+00  0.0000000000000D+00  0.0000000000000D+00
   206  2.0500000000000D+00  0.0000000000000D+00  0.0000000000000D+00
   207  2.0600000000000D+00  0.0000000000000D+00  0.0000000000000D+00
   208  2.0700000000000D+00  0.0000000000000D+00  0.0000000000000D+00
   209  2.0800000000000D+00  0.0000000000000D+00  0.0000000000000D+00
   210  2.0900000000000D+00  0.0000000000000D+00  0.0000000000000D+00
   211  2.1000000000000D+00  0.0000000000000D+00  0.0000000000000D+00
   212  2.1100000000000D+00  0.0000000000000D+00  0.0000000000000D+00
   213  2.1200000000000D+00  0.0000000000000D+00  0.0000000000000D+00
   214  2.1300000000000D+00  0.0000000000000D+00  0.0000000000000D+00
   215  2.1400000000000D+00  0.0000000000000D+00  0.0000000000000D+00
   216  2.1500000000000D+00  0.0000000000000D+00  0.0000000000000D+00
   217  2.1600000000000D+00  0.0000000000000D+00  0.0000000000000D+00
   218  2.1700000000000D+00  0.0000000000000D+00  0.0000000000000D+00
   219  2.1800000000000D+00  0.0000000000000D+00  0.0000000000000D+00
   220  2.1900000000000D+00  0.0000000000000D+00  0.0000000000000D+00
   221  2.2000000000000D+00  0.0000000000000D+00  0.0000000000000D+00
   222  2.2100000000000D+00  0.0000000000000D+00  0.0000000000000D+00
   223  2.2200000000000D+00  0.0000000000000D+00  0.0000000000000D+00
   224  2.2300000000000D+00  0.0000000000000D+00  0.0000000000000D+00
   225  2.2400000000000D+00  0.0000000000000D+00  0.0000000000000D+00
   226  2.2500000000000D+00  0.0000000000000D+00  0.0000000000000D+00
   227  2.2600000000000D+00  0.0000000000000D+00  0.0000000000000D+00
   228  2.2700000000000D+00  0.0000000000000D+00  0.0000000000000D+00
   229  2.2800000000000D+00  0.0000000000000D+00  0.0000000000000D+00
   230  2.2900000000000D+00  0.0000000000000D+00  0.0000000000000D+00
   231  2.3000000000000D+00  0.0000000000000D+00  0.0000000000000D+00
   232  2.3100000000000D+00  0.0000000000000D+00  0.0000000000000D+00
   233  2.3200000000000D+00  0.0000000000000D+00  0.0000000000000D+00
   234  2.3300000000000D+00  0.0000000000000D+00  0.0000000000000D+00
   235  2.3400000000000D+00  0.0000000000000D+00  0.0000000000000D+00
   236  2.3500000000000D+00  0.0000000000000D+00  0.0000000000000D+00
   237  2.3600000000000D+00  0.0000000000000D+00  0.0000000000000D+00
   238  2.3700000000000D+00  0.0000000000000D+00  0.0000000000000D+00
   239  2.3800000000000D+00  0.0000000000000D+00  0.0000000000000D+00
   240  2.3900000000000D+00  0.0000000000000D+00  0.0000000000000D+00
   241  2.4000000000000D+00  0.0000000000000D+00  0.0000000000000D+00
   242  2.4100000000000D+00  0.0000000000000D+00  0.0000000000000D+00
   243  2.4200000000000D+00  0.0000000000000D+00  0.0000000000000D+00
   244  2.4300000000000D+00  0.0000000000000D+00  0.0000000000000D+00
   245  2.4400000000000D+00  0.0000000000000D+00  0.0000000000000D+00
   246  2.4500000000000D+00  0.0000000000000D+00  0.0000000000000D+00
   247  2.4600000000000D+00  0.0000000000000D+00  0.0000000000000D+00
   248  2.4700000000000D+00  0.0000000000000D+00  0.0000000000000D+00
   249  2.4800000000000D+00  0.0000000000000D+00  0.0000000000000D+00
   250  2.4900000000000D+00  0.0000000000000D+00  0.0000000000000D+00
   251  2.5000000000000D+00  0.0000000000000D+00  0.0000000000000D+00
   252  2.5100000000000D+00  0.0000000000000D+00  0.0000000000000D+00
   253  2.5200000000000D+00  0.0000000000000D+00  0.0000000000000D+00
   254  2.5300000000000D+00  0.0000000000000D+00  0.0000000000000D+00
   255  2.5400000000000D+00  0.0000000000000D+00  0.0000000000000D+00
   256  2.5500000000000D+00  0.0000000000000D+00  0.0000000000000D+00
   257  2.5600000000000D+00  0.0000000000000D+00  0.0000000000000D+00
   258  2.5700000000000D+00  0.0000000000000D+00  0.0000000000000D+00
   259  2.5800000000000D+00  0.0000000000000D+00  0.0000000000000D+00
   260  2.5900000000000D+00  0.0000000000000D+00  0.0000000000000D+00
   261  2.6000000000000D+00  0.0000000000000D+00  0.0000000000000D+00
   262  2.6100000000000D+00  0.0000000000000D+00  0.0000000000000D+00
   263  2.6200000000000D+00  0.0000000000000D+00  0.0000000000000D+00
   264  2.6300000000000D+00  0.0000000000000D+00  0.0000000000000D+00
   265  2.6400000000000D+00  0.0000000000000D+00  0.0000000000000D+00
   266  2.6500000000000D+00  0.0000000000000D+00  0.0000000000000D+00
   267  2.6600000000000D+00  0.0000000000000D+00  0.0000000000000D+00
   268  2.6700000000000D+00  0.0000000000000D+00  0.0000000000000D+00
   269  2.6800000000000D+00  0.0000000000000D+00  0.0000000000000D+00
   270  2.6900000000000D+00  0.0000000000000D+00  0.0000000000000D+00
   271  2.7000000000000D+00  0.0000000000000D+00  0.0000000000000D+00
   272  2.7100000000000D+00  0.0000000000000D+00  0.0000000000000D+00
   273  2.7200000000000D+00  0.0000000000000D+00  0.0000000000000D+00
   274  2.7300000000000D+00  0.0000000000000D+00  0.0000000000000D+00
   275  2.7400000000000D+00  0.0000000000000D+00  0.0000000000000D+00
   276  2.7500000000000D+00  0.0000000000000D+00  0.0000000000000D+00
   277  2.7600000000000D+00  0.0000000000000D+00  0.0000000000000D+00
   278  2.7700000000000D+00  0.0000000000000D+00  0.0000000000000D+00
   279  2.7800000000000D+00  0.0000000000000D+00  0.0000000000000D+00
   280  2.7900000000000D+00  0.0000000000000D+00  0.0000000000000D+00
   281  2.8000000000000D+00  0.0000000000000D+00  0.0000000000000D+00
   282  2.8100000000000D+00  0.0000000000000D+00  0.0000000000000D+00
   283  2.8200000000000D+00  0.0000000000000D+00  0.0000000000000D+00
   284  2.8300000000000D+00  0.0000000000000D+00  0.0000000000000D+00
   285  2.8400000000000D+00  0.0000000000000D+00  0.0000000000000D+00
   286  2.8500000000000D+00  0.0000000000000D+00  0.0000000000000D+00
   287  2.8600000000000D+00  0.0000000000000D+00  0.0000000000000D+00
   288  2.8700000000000D+00  0.0000000000000D+00  0.0000000000000D+00
   289  2.8800000000000D+00  0.0000000000000D+00  0.0000000000000D+00
   290  2.8900000000000D+00  0.0000000000000D+00  0.0000000000000D+00
   291  2.9000000000000D+00  0.0000000000000D+00  0.0000000000000D+00
   292  2.9100000000000D+00  0.0000000000000D+00  0.0000000000000D+00
   293  2.9200000000000D+00  0.0000000000000D+00  0.0000000000000D+00
   294  2.9300000000000D+00  0.0000000000000D+00  0.0000000000000D+00
   295  2.9400000000000D+00  0.0000000000000D+00  0.0000000000000D+00
   296  2.9500000000000D+00  0.0000000000000D+00  0.0000000000000D+00
   297  2.9600000000000D+00  0.0000000000000D+00  0.0000000000000D+00
   298  2.9700000000000D+00  0.0000000000000D+00  0.0000000000000D+00
   299  2.9800000000000D+00  0.0000000000000D+00  0.0000000000000D+00
   300  2.9900000000000D+00  0.0000000000000D+00  0.0000000000000D+00
   301  3.0000000000000D+00  0.0000000000000D+00  0.0000000000000D+00
   302  3.0100000000000D+00  0.0000000000000D+00  0.0000000000000D+00
   303  3.0200000000000D+00  0.0000000000000D+00  0.0000000000000D+00
   304  3.0300000000000D+00  0.0000000000000D+00  0.0000000000000D+00
   305  3.0400000000000D+00  0.0000000000000D+00  0.0000000000000D+00
   306  3.0500000000000D+00  0.0000000000000D+00  0.0000000000000D+00
   307  3.0600000000000D+00  0.0000000000000D+00  0.0000000000000D+00
   308  3.0700000000000D+00  0.0000000000000D+00  0.0000000000000D+00
   309  3.0800000000000D+00  0.0000000000000D+00  0.0000000000000D+00
   310  3.0900000000000D+00  0.0000000000000D+00  0.0000000000000D+00
   311  3.1000000000000D+00  0.0000000000000D+00  0.0000000000000D+00
   312  3.1100000000000D+00  0.0000000000000D+00  0.0000000000000D+00
   313  3.1200000000000D+00  0.0000000000000D+00  0.0000000000000D+00
   314  3.1300000000000D+00  0.0000000000000D+00  0.0000000000000D+00
   315  3.1400000000000D+00  0.0000000000000D+00  0.0000000000000D+00
   316  3.1500000000000D+00  0.0000000000000D+00  0.0000000000000D+00
   317  3.1600000000000D+00  0.0000000000000D+00  0.0000000000000D+00
   318  3.1700000000000D+00  0.0000000000000D+00  0.0000000000000D+00
   319  3.1800000000000D+00  0.0000000000000D+00  0.0000000000000D+00
   320  3.1900000000000D+00  0.0000000000000D+00  0.0000000000000D+00
   321  3.2000000000000D+00  0.0000000000000D+00  0.0000000000000D+00
   322  3.2100000000000D+00  0.0000000000000D+00  0.0000000000000D+00
   323  3.2200000000000D+00  0.0000000000000D+00  0.0000000000000D+00
   324  3.2300000000000D+00  0.0000000000000D+00  0.0000000000000D+00
   325  3.2400000000000D+00  0.0000000000000D+00  0.0000000000000D+00
   326  3.2500000000000D+00  0.0000000000000D+00  0.0000000000000D+00
   327  3.2600000000000D+00  0.0000000000000D+00  0.0000000000000D+00
   328  3.2700000000000D+00  0.0000000000000D+00  0.0000000000000D+00
   329  3.2800000000000D+00  0.0000000000000D+00  0.0000000000000D+00
   330  3.2900000000000D+00  0.0000000000000D+00  0.0000000000000D+00
   331  3.3000000000000D+00  0.0000000000000D+00  0.0000000000000D+00
   332  3.3100000000000D+00  0.0000000000000D+00  0.0000000000000D+00
   333  3.3200000000000D+00  0.0000000000000D+00  0.0000000000000D+00
   334  3.3300000000000D+00  0.0000000000000D+00  0.0000000000000D+00
   335  3.3400000000000D+00  0.0000000000000D+00  0.0000000000000D+00
   336  3.3500000000000D+00  0.0000000000000D+00  0.0000000000000D+00
   337  3.3600000000000D+00  0.0000000000000D+00  0.0000000000000D+00
   338  3.3700000000000D+00  0.0000000000000D+00  0.0000000000000D+00
   339  3.3800000000000D+00  0.0000000000000D+00  0.0000000000000D+00
   340  3.3900000000000D+00  0.0000000000000D+00  0.0000000000000D+00
   341  3.4000000000000D+00  0.0000000000000D+00  0.0000000000000D+00
   342  3.4100000000000D+00  0.0000000000000D+00  0.0000000000000D+00
   343  3.4200000000000D+00  0.0000000000000D+00  0.0000000000000D+00
   344  3.4300000000000D+00  0.0000000000000D+00  0.0000000000000D+00
   345  3.4400000000000D+00  0.0000000000000D+00  0.0000000000000D+00
   346  3.4500000000000D+00  0.0000000000000D+00  0.0000000000000D+00
   347  3.4600000000000D+00  0.0000000000000D+00  0.0000000000000D+00
   348  3.4700000000000D+00  0.0000000000000D+00  0.0000000000000D+00
   349  3.4800000000000D+00  0.0000000000000D+00  0.0000000000000D+00
   350  3.4900000000000D+00  0.0000000000000D+00  0.0000000000000D+00
   351  3.5000000000000D+00  0.0000000000000D+00  0.0000000000000D+00
   352  3.5100000000000D+00  0.0000000000000D+00  0.0000000000000D+00
   353  3.5200000000000D+00  0.0000000000000D+00  0.0000000000000D+00
   354  3.5300000000000D+00  0.0000000000000D+00  0.0000000000000D+00
   355  3.5400000000000D+00  0.0000000000000D+00  0.0000000000000D+00
   356  3.5500000000000D+00  0.0000000000000D+00  0.0000000000000D+00
   357  3.5600000000000D+00  0.0000000000000D+00  0.0000000000000D+00
   358  3.5700000000000D+00  0.0000000000000D+00  0.0000000000000D+00
   359  3.5800000000000D+00  0.0000000000000D+00  0.0000000000000D+00
   360  3.5900000000000D+00  0.0000000000000D+00  0.0000000000000D+00
   361  3.6000000000000D+00  0.0000000000000D+00  0.0000000000000D+00
   362  3.6100000000000D+00  0.0000000000000D+00  0.0000000000000D+00
   363  3.6200000000000D+00  0.0000000000000D+00  0.0000000000000D+00
   364  3.6300000000000D+00  0.0000000000000D+00  0.0000000000000D+00
   365  3.6400000000000D+00  0.0000000000000D+00  0.0000000000000D+00
   366  3.6500000000000D+00  0.0000000000000D+00  0.0000000000000D+00
   367  3.6600000000000D+00  0.0000000000000D+00  0.0000000000000D+00
   368  3.6700000000000D+00  0.0000000000000D+00  0.0000000000000D+00
   369  3.6800000000000D+00  0.0000000000000D+00  0.0000000000000D+00
   370  3.6900000000000D+00  0.0000000000000D+00  0.0000000000000D+00
   371  3.7000000000000D+00  0.0000000000000D+00  0.0000000000000D+00
   372  3.7100000000000D+00  0.0000000000000D+00  0.0000000000000D+00
   373  3.7200000000000D+00  0.0000000000000D+00  0.0000000000000D+00
   374  3.7300000000000D+00  0.0000000000000D+00  0.0000000000000D+00
   375  3.7400000000000D+00  0.0000000000000D+00  0.0000000000000D+00
   376  3.7500000000000D+00  0.0000000000000D+00  0.0000000000000D+00
   377  3.7600000000000D+00  0.0000000000000D+00  0.0000000000000D+00
   378  3.7700000000000D+00  0.0000000000000D+00  0.0000000000000D+00
   379  3.7800000000000D+00  0.0000000000000D+00  0.0000000000000D+00
   380  3.7900000000000D+00  0.0000000000000D+00  0.0000000000000D+00
   381  3.8000000000000D+00  0.0000000000000D+00  0.0000000000000D+00
   382  3.8100000000000D+00  0.0000000000000D+00  0.0000000000000D+00
   383  3.8200000000000D+00  0.0000000000000D+00  0.0000000000000D+00
   384  3.8300000000000D+00  0.0000000000000D+00  0.0000000000000D+00
   385  3.8400000000000D+00  0.0000000000000D+00  0.0000000000000D+00
   386  3.8500000000000D+00  0.0000000000000D+00  0.0000000000000D+00
   387  3.8600000000000D+00  0.0000000000000D+00  0.0000000000000D+00
   388  3.8700000000000D+00  0.0000000000000D+00  0.0000000000000D+00
   389  3.8800000000000D+00  0.0000000000000D+00  0.0000000000000D+00
   390  3.8900000000000D+00  0.0000000000000D+00  0.0000000000000D+00
   391  3.9000000000000D+00  0.0000000000000D+00  0.0000000000000D+00
   392  3.9100000000000D+00  0.0000000000000D+00  0.0000000000000D+00
   393  3.9200000000000D+00  0.0000000000000D+00  0.0000000000000D+00
   394  3.9300000000000D+00  0.0000000000000D+00  0.0000000000000D+00
   395  3.9400000000000D+00  0.0000000000000D+00  0.0000000000000D+00
   396  3.9500000000000D+00  0.0000000000000D+00  0.0000000000000D+00
   397  3.9600000000000D+00  0.0000000000000D+00  0.0000000000000D+00
   398  3.9700000000000D+00  0.0000000000000D+00  0.0000000000000D+00
   399  3.9800000000000D+00  0.0000000000000D+00  0.0000000000000D+00
   400  3.9900000000000D+00  0.0000000000000D+00  0.0000000000000D+00
   401  4.0000000000000D+00  0.0000000000000D+00  0.0000000000000D+00
   402  4.0100000000000D+00  0.0000000000000D+00  0.0000000000000D+00
   403  4.0200000000000D+00  0.0000000000000D+00  0.0000000000000D+00
   404  4.0300000000000D+00  0.0000000000000D+00  0.0000000000000D+00
   405  4.0400000000000D+00  0.0000000000000D+00  0.0000000000000D+00
   406  4.0500000000000D+00  0.0000000000000D+00  0.0000000000000D+00
   407  4.0600000000000D+00  0.0000000000000D+00  0.0000000000000D+00
   408  4.0700000000000D+00  0.0000000000000D+00  0.0000000000000D+00
   409  4.0800000000000D+00  0.0000000000000D+00  0.0000000000000D+00
   410  4.0900000000000D+00  0.0000000000000D+00  0.0000000000000D+00
   411  4.1000000000000D+00  0.0000000000000D+00  0.0000000000000D+00
   412  4.1100000000000D+00  0.0000000000000D+00  0.0000000000000D+00
   413  4.1200000000000D+00  0.0000000000000D+00  0.0000000000000D+00
   414  4.1300000000000D+00  0.0000000000000D+00  0.0000000000000D+00
   415  4.1400000000000D+00  0.0000000000000D+00  0.0000000000000D+00
   416  4.1500000000000D+00  0.0000000000000D+00  0.0000000000000D+00
   417  4.1600000000000D+00  0.0000000000000D+00  0.0000000000000D+00
   418  4.1700000000000D+00  0.0000000000000D+00  0.0000000000000D+00
   419  4.1800000000000D+00  0.0000000000000D+00  0.0000000000000D+00
   420  4.1900000000000D+00  0.0000000000000D+00  0.0000000000000D+00
   421  4.2000000000000D+00  0.0000000000000D+00  0.0000000000000D+00
   422  4.2100000000000D+00  0.0000000000000D+00  0.0000000000000D+00