Na    ONCVPSP-3.3.1  r_core=   1.47844   2.29870
     11.0000      9.0000      210904    zatom,zion,pspd
     8      11   1     4   600     0    pspcod,pspxc,lmax,lloc,mmax,r2well
  5.99000000  0.00000000  0.00000000    rchrg fchrg qchrg
     2     2     0     0     0    nproj
     1     1           extension_switch
   0                         2.6923234451474D+00 -1.1953439748975D+00
     1  0.0000000000000D+00 -7.0845096455940D-10  1.7658663420406D-10
     2  1.0000000000000D-02  1.2824118875743D-01  2.3395164266021D-02
     3  2.0000000000000D-02  2.5582440106691D-01  4.6865974326397D-02
     4  3.0000000000000D-02  3.8209561599598D-01  7.0487318397841D-02
     5  4.0000000000000D-02  5.0640869743697D-01  9.4332575373918D-02
     6  5.0000000000000D-02  6.2812927118418D-01  1.1847287469875D-01
     7  6.0000000000000D-02  7.4663852411165D-01  1.4297637355727D-01
     8  7.0000000000000D-02  8.6133690031982D-01  1.6790755694570D-01
     9  8.0000000000000D-02  9.7164766982774D-01  1.9332656600924D-01
    10  9.0000000000000D-02  1.0770203462639D+00  2.1928855981589D-01
    11  1.0000000000000D-01  1.1769339310483D+00  2.4584311547746D-01
    12  1.1000000000000D-01  1.2708999627513D+00  2.7303367123318D-01
    13  1.2000000000000D-01  1.3584653516604D+00  3.0089701678045D-01
    14  1.3000000000000D-01  1.4392149810610D+00  3.2946283477359D-01
    15  1.4000000000000D-01  1.5127740583526D+00  3.5875329701791D-01
    16  1.5000000000000D-01  1.5788102008442D+00  3.8878271846628D-01
    17  1.6000000000000D-01  1.6370352429074D+00  4.1955727168185D-01
    18  1.7000000000000D-01  1.6872067530925D+00  4.5107476396698D-01
    19  1.8000000000000D-01  1.7291292518194D+00  4.8332447887906D-01
    20  1.9000000000000D-01  1.7626551223290D+00  5.1628708336187D-01
    21  2.0000000000000D-01  1.7876852097058D+00  5.4993460122049D-01
    22  2.1000000000000D-01  1.8041691049486D+00  5.8423045316294D-01
    23  2.2000000000000D-01  1.8121051132498D+00  6.1912956312612D-01
    24  2.3000000000000D-01  1.8115399078381D+00  6.5457853010131D-01
    25  2.4000000000000D-01  1.8025678729253D+00  6.9051586417972D-01
    26  2.5000000000000D-01  1.7853301414583D+00  7.2687228505502D-01
    27  2.6000000000000D-01  1.7600133354980D+00  7.6357108075096D-01
    28  2.7000000000000D-01  1.7268480191180D+00  8.0052852389229D-01
    29  2.8000000000000D-01  1.6861068757074D+00  8.3765434240921D-01
    30  2.9000000000000D-01  1.6381026234814D+00  8.7485224116313D-01
    31  3.0000000000000D-01  1.5831856848125D+00  9.1202047060731D-01
    32  3.1000000000000D-01  1.5217416267005D+00  9.4905243825332D-01
    33  3.2000000000000D-01  1.4541883912768D+00  9.8583735840562D-01
    34  3.3000000000000D-01  1.3809733366760D+00  1.0222609353535D+00
    35  3.4000000000000D-01  1.3025701099032D+00  1.0582060749754D+00
    36  3.5000000000000D-01  1.2194753744568D+00  1.0935536195169D+00
    37  3.6000000000000D-01  1.1322054164342D+00  1.1281831001479D+00
    38  3.7000000000000D-01  1.0412926536375D+00  1.1619735017972D+00
    39  3.8000000000000D-01  9.4728207280673D-01  1.1948040346908D+00
    40  3.9000000000000D-01  8.5072762053016D-01  1.2265549069980D+00
    41  4.0000000000000D-01  7.5218857361095D-01  1.2571080930064D+00
    42  4.1000000000000D-01  6.5222591470888D-01  1.2863480913082D+00
    43  4.2000000000000D-01  5.5139873891764D-01  1.3141626675840D+00
    44  4.3000000000000D-01  4.5026071658798D-01  1.3404435767142D+00
    45  4.4000000000000D-01  3.4935663716412D-01  1.3650872591321D+00
    46  4.5000000000000D-01  2.4921905807023D-01  1.3879955065539D+00
    47  4.6000000000000D-01  1.5036508176901D-01  1.4090760924807D+00
    48  4.7000000000000D-01  5.3293283024187D-02  1.4282433631567D+00
    49  4.8000000000000D-01 -4.1519192860896D-02  1.4454187849924D+00
    50  4.9000000000000D-01 -1.3361934147472D-01  1.4605314448092D+00
    51  5.0000000000000D-01 -2.2258080261148D-01  1.4735184996440D+00
    52  5.1000000000000D-01 -3.0800613938268D-01  1.4843255732425D+00
    53  5.2000000000000D-01 -3.8952887886681D-01  1.4929070967948D+00
    54  5.3000000000000D-01 -4.6681530197084D-01  1.4992265918935D+00
    55  5.4000000000000D-01 -5.3956597220247D-01  1.5032568941420D+00
    56  5.5000000000000D-01 -6.0751699515733D-01  1.5049803162906D+00
    57  5.6000000000000D-01 -6.7044100268155D-01  1.5043887502357D+00
    58  5.7000000000000D-01 -7.2814785788012D-01  1.5014837076740D+00
    59  5.8000000000000D-01 -7.8048507936035D-01  1.4962762996582D+00
    60  5.9000000000000D-01 -8.2733798533782D-01  1.4887871557467D+00
    61  6.0000000000000D-01 -8.6862956044132D-01  1.4790462838796D+00
    62  6.1000000000000D-01 -9.0432005024740D-01  1.4670928725343D+00
    63  6.2000000000000D-01 -9.3440629069580D-01  1.4529750371237D+00
    64  6.3000000000000D-01 -9.5892078161333D-01  1.4367495129836D+00
    65  6.4000000000000D-01 -9.7793051554113D-01  1.4184812976649D+00
    66  6.5000000000000D-01 -9.9153557493544D-01  1.3982432455787D+00
    67  6.6000000000000D-01 -9.9986751256713D-01  1.3761156183591D+00
    68  6.7000000000000D-01 -1.0030875315578D+00  1.3521855945850D+00
    69  6.8000000000000D-01 -1.0013844829584D+00  1.3265467427516D+00
    70  6.9000000000000D-01 -9.9497270008458D-01  1.2992984615987D+00
    71  7.0000000000000D-01 -9.8408968995038D-01  1.2705453920806D+00
    72  7.1000000000000D-01 -9.6899370309217D-01  1.2403968054067D+00
    73  7.2000000000000D-01 -9.4996120382990D-01  1.2089659716916D+00
    74  7.3000000000000D-01 -9.2728426357295D-01  1.1763695138176D+00
    75  7.4000000000000D-01 -9.0126790013129D-01  1.1427267511545D+00
    76  7.5000000000000D-01 -8.7222738614433D-01  1.1081590377676D+00
    77  7.6000000000000D-01 -8.4048554968184D-01  1.0727890997135D+00
    78  7.7000000000000D-01 -8.0637008981185D-01  1.0367403759433D+00
    79  7.8000000000000D-01 -7.7021092946415D-01  1.0001363672232D+00
    80  7.9000000000000D-01 -7.3233762725679D-01  9.6309999734335D-01
    81  8.0000000000000D-01 -6.9307686910073D-01  9.2575299070882D-01
    82  8.1000000000000D-01 -6.5275005936241D-01  8.8821527020694D-01
    83  8.2000000000000D-01 -6.1167103015723D-01  8.5060437901515D-01
    84  8.3000000000000D-01 -5.7014388598042D-01  8.1303492975967D-01
    85  8.4000000000000D-01 -5.2846099936819D-01  7.7561808416047D-01
    86  8.5000000000000D-01 -4.8690117163783D-01  7.3846106600285D-01
    87  8.6000000000000D-01 -4.4572797099556D-01  7.0166670996518D-01
    88  8.7000000000000D-01 -4.0518825844354D-01  6.6533304850799D-01
    89  8.8000000000000D-01 -3.6551090998047D-01  6.2955293869475D-01
    90  8.9000000000000D-01 -3.2690574159325D-01  5.9441373047253D-01
    91  9.0000000000000D-01 -2.8956264149931D-01  5.5999697759469D-01
    92  9.1000000000000D-01 -2.5365091204125D-01  5.2637819201984D-01
    93  9.2000000000000D-01 -2.1931882157694D-01  4.9362664227566D-01
    94  9.3000000000000D-01 -1.8669336467011D-01  4.6180519593555D-01
    95  9.4000000000000D-01 -1.5588022688845D-01  4.3097020602193D-01
    96  9.5000000000000D-01 -1.2696394858004D-01  4.0117144082806D-01
    97  9.6000000000000D-01 -1.0000828012643D-01  3.7245205633742D-01
    98  9.7000000000000D-01 -7.5056719435986D-02  3.4484861012948D-01
    99  9.8000000000000D-01 -5.2133220763081D-02  3.1839111537885D-01
   100  9.9000000000000D-01 -3.1243062430691D-02  2.9310313329832D-01
   101  1.0000000000000D+00 -1.2373859661699D-02  2.6900190214078D-01
   102  1.0100000000000D+00  4.5032924979144D-03  2.4609850066019D-01
   103  1.0200000000000D+00  1.9432562228752D-02  2.2439804374344D-01
   104  1.0300000000000D+00  3.2472026905638D-02  2.0389990775816D-01
   105  1.0400000000000D+00  4.3692239590446D-02  1.8459798302913D-01
   106  1.0500000000000D+00  5.3174734187473D-02  1.6648095073802D-01
   107  1.0600000000000D+00  6.1010487679872D-02  1.4953258145963D-01
   108  1.0700000000000D+00  6.7298357977755D-02  1.3373205249027D-01
   109  1.0800000000000D+00  7.2143515807443D-02  1.1905428109283D-01
   110  1.0900000000000D+00  7.5655888800574D-02  1.0547027077867D-01
   111  1.1000000000000D+00  7.7948635499827D-02  9.2947467763053D-02
   112  1.1100000000000D+00  7.9136666296711D-02  8.1450124780559D-02
   113  1.1200000000000D+00  7.9335227543795D-02  7.0939669511535D-02
   114  1.1300000000000D+00  7.8658563989029D-02  6.1375074971482D-02
   115  1.1400000000000D+00  7.7218673835770D-02  5.2713229295833D-02
   116  1.1500000000000D+00  7.5124169104478D-02  4.4909302518006D-02
   117  1.1600000000000D+00  7.2479252817470D-02  3.7917108061081D-02
   118  1.1700000000000D+00  6.9382822880035D-02  3.1689456840482D-02
   119  1.1800000000000D+00  6.5927711340019D-02  2.6178502003970D-02
   120  1.1900000000000D+00  6.2200065528853D-02  2.1336072578075D-02
   121  1.2000000000000D+00  5.8278876106008D-02  1.7113994459318D-02
   122  1.2100000000000D+00  5.4235655668448D-02  1.3464397342997D-02
   123  1.2200000000000D+00  5.0134269429701D-02  1.0340006430908D-02
   124  1.2300000000000D+00  4.6030917741471D-02  7.6944179650168D-03
   125  1.2400000000000D+00  4.1974268830047D-02  5.4823578017127D-03
   126  1.2500000000000D+00  3.8005738644831D-02  3.6599224154522D-03
   127  1.2600000000000D+00  3.4159912407707D-02  2.1848020057273D-03
   128  1.2700000000000D+00  3.0465101602539D-02  1.0164854928050D-03
   129  1.2800000000000D+00  2.6944029061631D-02  1.1644731687461D-04
   130  1.2900000000000D+00  2.3614637282522D-02 -5.5168323664628D-04
   131  1.3000000000000D+00  2.0490995996282D-02 -1.0219715758910D-03
   132  1.3100000000000D+00  1.7584276626768D-02 -1.3260468327675D-03
   133  1.3200000000000D+00  1.4903779309879D-02 -1.4929928995059D-03
   134  1.3300000000000D+00  1.2458850850720D-02 -1.5491692736770D-03
   135  1.3400000000000D+00  1.0257673482274D-02 -1.5183785701121D-03
   136  1.3500000000000D+00  8.3053281618646D-03 -1.4221066205450D-03
   137  1.3600000000000D+00  6.6014377976716D-03 -1.2797548124705D-03
   138  1.3700000000000D+00  5.1398991696442D-03 -1.1086627254400D-03
   139  1.3800000000000D+00  3.9103668229178D-03 -9.2394489986501D-04
   140  1.3900000000000D+00  2.8986504885899D-03 -7.3846637098543D-04
   141  1.4000000000000D+00  2.0874918222353D-03 -5.6278405064986D-04
   142  1.4100000000000D+00  1.4571960746505D-03 -4.0511270380035D-04
   143  1.4200000000000D+00  9.8625300263021D-04 -2.7129771762781D-04
   144  1.4300000000000D+00  6.5211084920152D-04 -1.6477795017642D-04
   145  1.4400000000000D+00  4.3088391280284D-04 -8.6653718948237D-05
   146  1.4500000000000D+00  2.9533847621363D-04 -3.5722622803530D-05
   147  1.4600000000000D+00  2.3124448192636D-04 -7.8981802667030D-06
   148  1.4700000000000D+00  2.2612998450189D-04  3.0177542896707D-06
   149  1.4800000000000D+00  1.8795294094293D-04  4.0400317852103D-06
   150  1.4900000000000D+00  6.7853183200242D-05  1.4567435819079D-06
   151  1.5000000000000D+00 -1.6409783487546D-05 -4.1280026801654D-07
   152  1.5100000000000D+00 -1.1783533361110D-05 -2.9822583527560D-07
   153  1.5200000000000D+00  4.3435147575604D-06  1.1948115336646D-07
   154  1.5300000000000D+00  1.6619989819970D-06  4.6468972982996D-08
   155  1.5400000000000D+00 -5.6553228863715D-07 -1.1893758840532D-08
   156  1.5500000000000D+00 -6.3738595866517D-08 -1.3404919635930D-09
   157  1.5600000000000D+00  0.0000000000000D+00  0.0000000000000D+00
   158  1.5700000000000D+00  0.0000000000000D+00  0.0000000000000D+00
   159  1.5800000000000D+00  0.0000000000000D+00  0.0000000000000D+00
   160  1.5900000000000D+00  0.0000000000000D+00  0.0000000000000D+00
   161  1.6000000000000D+00  0.0000000000000D+00  0.0000000000000D+00
   162  1.6100000000000D+00  0.0000000000000D+00  0.0000000000000D+00
   163  1.6200000000000D+00  0.0000000000000D+00  0.0000000000000D+00
   164  1.6300000000000D+00  0.0000000000000D+00  0.0000000000000D+00
   165  1.6400000000000D+00  0.0000000000000D+00  0.0000000000000D+00
   166  1.6500000000000D+00  0.0000000000000D+00  0.0000000000000D+00
   167  1.6600000000000D+00  0.0000000000000D+00  0.0000000000000D+00
   168  1.6700000000000D+00  0.0000000000000D+00  0.0000000000000D+00
   169  1.6800000000000D+00  0.0000000000000D+00  0.0000000000000D+00
   170  1.6900000000000D+00  0.0000000000000D+00  0.0000000000000D+00
   171  1.7000000000000D+00  0.0000000000000D+00  0.0000000000000D+00
   172  1.7100000000000D+00  0.0000000000000D+00  0.0000000000000D+00
   173  1.7200000000000D+00  0.0000000000000D+00  0.0000000000000D+00
   174  1.7300000000000D+00  0.0000000000000D+00  0.0000000000000D+00
   175  1.7400000000000D+00  0.0000000000000D+00  0.0000000000000D+00
   176  1.7500000000000D+00  0.0000000000000D+00  0.0000000000000D+00
   177  1.7600000000000D+00  0.0000000000000D+00  0.0000000000000D+00
   178  1.7700000000000D+00  0.0000000000000D+00  0.0000000000000D+00
   179  1.7800000000000D+00  0.0000000000000D+00  0.0000000000000D+00
   180  1.7900000000000D+00  0.0000000000000D+00  0.0000000000000D+00
   181  1.8000000000000D+00  0.0000000000000D+00  0.0000000000000D+00
   182  1.8100000000000D+00  0.0000000000000D+00  0.0000000000000D+00
   183  1.8200000000000D+00  0.0000000000000D+00  0.0000000000000D+00
   184  1.8300000000000D+00  0.0000000000000D+00  0.0000000000000D+00
   185  1.8400000000000D+00  0.0000000000000D+00  0.0000000000000D+00
   186  1.8500000000000D+00  0.0000000000000D+00  0.0000000000000D+00
   187  1.8600000000000D+00  0.0000000000000D+00  0.0000000000000D+00
   188  1.8700000000000D+00  0.0000000000000D+00  0.0000000000000D+00
   189  1.8800000000000D+00  0.0000000000000D+00  0.0000000000000D+00
   190  1.8900000000000D+00  0.0000000000000D+00  0.0000000000000D+00
   191  1.9000000000000D+00  0.0000000000000D+00  0.0000000000000D+00
   192  1.9100000000000D+00  0.0000000000000D+00  0.0000000000000D+00
   193  1.9200000000000D+00  0.0000000000000D+00  0.0000000000000D+00
   194  1.9300000000000D+00  0.0000000000000D+00  0.0000000000000D+00
   195  1.9400000000000D+00  0.0000000000000D+00  0.0000000000000D+00
   196  1.9500000000000D+00  0.0000000000000D+00  0.0000000000000D+00
   197  1.9600000000000D+00  0.0000000000000D+00  0.0000000000000D+00
   198  1.9700000000000D+00  0.0000000000000D+00  0.0000000000000D+00
   199  1.9800000000000D+00  0.0000000000000D+00  0.0000000000000D+00
   200  1.9900000000000D+00  0.0000000000000D+00  0.0000000000000D+00
   201  2.0000000000000D+00  0.0000000000000D+00  0.0000000000000D+00
   202  2.0100000000000D+00  0.0000000000000D+00  0.0000000000000D+00
   203  2.0200000000000D+00  0.0000000000000D+00  0.0000000000000D+00
   204  2.0300000000000D+00  0.0000000000000D+00  0.0000000000000D+00
   205  2.0400000000000D+00  0.0000000000000D+00  0.0000000000000D+00
   206  2.0500000000000D+00  0.0000000000000D+00  0.0000000000000D+00
   207  2.0600000000000D+00  0.0000000000000D+00  0.0000000000000D+00
   208  2.0700000000000D+00  0.0000000000000D+00  0.0000000000000D+00
   209  2.0800000000000D+00  0.0000000000000D+00  0.0000000000000D+00
   210  2.0900000000000D+00  0.0000000000000D+00  0.0000000000000D+00
   211  2.1000000000000D+00  0.0000000000000D+00  0.0000000000000D+00
   212  2.1100000000000D+00  0.0000000000000D+00  0.0000000000000D+00
   213  2.1200000000000D+00  0.0000000000000D+00  0.0000000000000D+00
   214  2.1300000000000D+00  0.0000000000000D+00  0.0000000000000D+00
   215  2.1400000000000D+00  0.0000000000000D+00  0.0000000000000D+00
   216  2.1500000000000D+00  0.0000000000000D+00  0.0000000000000D+00
   217  2.1600000000000D+00  0.0000000000000D+00  0.0000000000000D+00
   218  2.1700000000000D+00  0.0000000000000D+00  0.0000000000000D+00
   219  2.1800000000000D+00  0.0000000000000D+00  0.0000000000000D+00
   220  2.1900000000000D+00  0.0000000000000D+00  0.0000000000000D+00
   221  2.2000000000000D+00  0.0000000000000D+00  0.0000000000000D+00
   222  2.2100000000000D+00  0.0000000000000D+00  0.0000000000000D+00
   223  2.2200000000000D+00  0.0000000000000D+00  0.0000000000000D+00
   224  2.2300000000000D+00  0.0000000000000D+00  0.0000000000000D+00
   225  2.2400000000000D+00  0.0000000000000D+00  0.0000000000000D+00
   226  2.2500000000000D+00  0.0000000000000D+00  0.0000000000000D+00
   227  2.2600000000000D+00  0.0000000000000D+00  0.0000000000000D+00
   228  2.2700000000000D+00  0.0000000000000D+00  0.0000000000000D+00
   229  2.2800000000000D+00  0.0000000000000D+00  0.0000000000000D+00
   230  2.2900000000000D+00  0.0000000000000D+00  0.0000000000000D+00
   231  2.3000000000000D+00  0.0000000000000D+00  0.0000000000000D+00
   232  2.3100000000000D+00  0.0000000000000D+00  0.0000000000000D+00
   233  2.3200000000000D+00  0.0000000000000D+00  0.0000000000000D+00
   234  2.3300000000000D+00  0.0000000000000D+00  0.0000000000000D+00
   235  2.3400000000000D+00  0.0000000000000D+00  0.0000000000000D+00
   236  2.3500000000000D+00  0.0000000000000D+00  0.0000000000000D+00
   237  2.3600000000000D+00  0.0000000000000D+00  0.0000000000000D+00
   238  2.3700000000000D+00  0.0000000000000D+00  0.0000000000000D+00
   239  2.3800000000000D+00  0.0000000000000D+00  0.0000000000000D+00
   240  2.3900000000000D+00  0.0000000000000D+00  0.0000000000000D+00
   241  2.4000000000000D+00  0.0000000000000D+00  0.0000000000000D+00
   242  2.4100000000000D+00  0.0000000000000D+00  0.0000000000000D+00
   243  2.4200000000000D+00  0.0000000000000D+00  0.0000000000000D+00
   244  2.4300000000000D+00  0.0000000000000D+00  0.0000000000000D+00
   245  2.4400000000000D+00  0.0000000000000D+00  0.0000000000000D+00
   246  2.4500000000000D+00  0.0000000000000D+00  0.0000000000000D+00
   247  2.4600000000000D+00  0.0000000000000D+00  0.0000000000000D+00
   248  2.4700000000000D+00  0.0000000000000D+00  0.0000000000000D+00
   249  2.4800000000000D+00  0.0000000000000D+00  0.0000000000000D+00
   250  2.4900000000000D+00  0.0000000000000D+00  0.0000000000000D+00
   251  2.5000000000000D+00  0.0000000000000D+00  0.0000000000000D+00
   252  2.5100000000000D+00  0.0000000000000D+00  0.0000000000000D+00
   253  2.5200000000000D+00  0.0000000000000D+00  0.0000000000000D+00
   254  2.5300000000000D+00  0.0000000000000D+00  0.0000000000000D+00
   255  2.5400000000000D+00  0.0000000000000D+00  0.0000000000000D+00
   256  2.5500000000000D+00  0.0000000000000D+00  0.0000000000000D+00
   257  2.5600000000000D+00  0.0000000000000D+00  0.0000000000000D+00
   258  2.5700000000000D+00  0.0000000000000D+00  0.0000000000000D+00
   259  2.5800000000000D+00  0.0000000000000D+00  0.0000000000000D+00
   260  2.5900000000000D+00  0.0000000000000D+00  0.0000000000000D+00
   261  2.6000000000000D+00  0.0000000000000D+00  0.0000000000000D+00
   262  2.6100000000000D+00  0.0000000000000D+00  0.0000000000000D+00
   263  2.6200000000000D+00  0.0000000000000D+00  0.0000000000000D+00
   264  2.6300000000000D+00  0.0000000000000D+00  0.0000000000000D+00
   265  2.6400000000000D+00  0.0000000000000D+00  0.0000000000000D+00
   266  2.6500000000000D+00  0.0000000000000D+00  0.0000000000000D+00
   267  2.6600000000000D+00  0.0000000000000D+00  0.0000000000000D+00
   268  2.6700000000000D+00  0.0000000000000D+00  0.0000000000000D+00
   269  2.6800000000000D+00  0.0000000000000D+00  0.0000000000000D+00
   270  2.6900000000000D+00  0.0000000000000D+00  0.0000000000000D+00
   271  2.7000000000000D+00  0.0000000000000D+00  0.0000000000000D+00
   272  2.7100000000000D+00  0.0000000000000D+00  0.0000000000000D+00
   273  2.7200000000000D+00  0.0000000000000D+00  0.0000000000000D+00
   274  2.7300000000000D+00  0.0000000000000D+00  0.0000000000000D+00
   275  2.7400000000000D+00  0.0000000000000D+00  0.0000000000000D+00
   276  2.7500000000000D+00  0.0000000000000D+00  0.0000000000000D+00
   277  2.7600000000000D+00  0.0000000000000D+00  0.0000000000000D+00
   278  2.7700000000000D+00  0.0000000000000D+00  0.0000000000000D+00
   279  2.7800000000000D+00  0.0000000000000D+00  0.0000000000000D+00
   280  2.7900000000000D+00  0.0000000000000D+00  0.0000000000000D+00
   281  2.8000000000000D+00  0.0000000000000D+00  0.0000000000000D+00
   282  2.8100000000000D+00  0.0000000000000D+00  0.0000000000000D+00
   283  2.8200000000000D+00  0.0000000000000D+00  0.0000000000000D+00
   284  2.8300000000000D+00  0.0000000000000D+00  0.0000000000000D+00
   285  2.8400000000000D+00  0.0000000000000D+00  0.0000000000000D+00
   286  2.8500000000000D+00  0.0000000000000D+00  0.0000000000000D+00
   287  2.8600000000000D+00  0.0000000000000D+00  0.0000000000000D+00
   288  2.8700000000000D+00  0.0000000000000D+00  0.0000000000000D+00
   289  2.8800000000000D+00  0.0000000000000D+00  0.0000000000000D+00
   290  2.8900000000000D+00  0.0000000000000D+00  0.0000000000000D+00
   291  2.9000000000000D+00  0.0000000000000D+00  0.0000000000000D+00
   292  2.9100000000000D+00  0.0000000000000D+00  0.0000000000000D+00
   293  2.9200000000000D+00  0.0000000000000D+00  0.0000000000000D+00
   294  2.9300000000000D+00  0.0000000000000D+00  0.0000000000000D+00
   295  2.9400000000000D+00  0.0000000000000D+00  0.0000000000000D+00
   296  2.9500000000000D+00  0.0000000000000D+00  0.0000000000000D+00
   297  2.9600000000000D+00  0.0000000000000D+00  0.0000000000000D+00
   298  2.9700000000000D+00  0.0000000000000D+00  0.0000000000000D+00
   299  2.9800000000000D+00  0.0000000000000D+00  0.0000000000000D+00
   300  2.9900000000000D+00  0.0000000000000D+00  0.0000000000000D+00
   301  3.0000000000000D+00  0.0000000000000D+00  0.0000000000000D+00
   302  3.0100000000000D+00  0.0000000000000D+00  0.0000000000000D+00
   303  3.0200000000000D+00  0.0000000000000D+00  0.0000000000000D+00
   304  3.0300000000000D+00  0.0000000000000D+00  0.0000000000000D+00
   305  3.0400000000000D+00  0.0000000000000D+00  0.0000000000000D+00
   306  3.0500000000000D+00  0.0000000000000D+00  0.0000000000000D+00
   307  3.0600000000000D+00  0.0000000000000D+00  0.0000000000000D+00
   308  3.0700000000000D+00  0.0000000000000D+00  0.0000000000000D+00
   309  3.0800000000000D+00  0.0000000000000D+00  0.0000000000000D+00
   310  3.0900000000000D+00  0.0000000000000D+00  0.0000000000000D+00
   311  3.1000000000000D+00  0.0000000000000D+00  0.0000000000000D+00
   312  3.1100000000000D+00  0.0000000000000D+00  0.0000000000000D+00
   313  3.1200000000000D+00  0.0000000000000D+00  0.0000000000000D+00
   314  3.1300000000000D+00  0.0000000000000D+00  0.0000000000000D+00
   315  3.1400000000000D+00  0.0000000000000D+00  0.0000000000000D+00
   316  3.1500000000000D+00  0.0000000000000D+00  0.0000000000000D+00
   317  3.1600000000000D+00  0.0000000000000D+00  0.0000000000000D+00
   318  3.1700000000000D+00  0.0000000000000D+00  0.0000000000000D+00
   319  3.1800000000000D+00  0.0000000000000D+00  0.0000000000000D+00
   320  3.1900000000000D+00  0.0000000000000D+00  0.0000000000000D+00
   321  3.2000000000000D+00  0.0000000000000D+00  0.0000000000000D+00
   322  3.2100000000000D+00  0.0000000000000D+00  0.0000000000000D+00
   323  3.2200000000000D+00  0.0000000000000D+00  0.0000000000000D+00
   324  3.2300000000000D+00  0.0000000000000D+00  0.0000000000000D+00
   325  3.2400000000000D+00  0.0000000000000D+00  0.0000000000000D+00
   326  3.2500000000000D+00  0.0000000000000D+00  0.0000000000000D+00
   327  3.2600000000000D+00  0.0000000000000D+00  0.0000000000000D+00
   328  3.2700000000000D+00  0.0000000000000D+00  0.0000000000000D+00
   329  3.2800000000000D+00  0.0000000000000D+00  0.0000000000000D+00
   330  3.2900000000000D+00  0.0000000000000D+00  0.0000000000000D+00
   331  3.3000000000000D+00  0.0000000000000D+00  0.0000000000000D+00
   332  3.3100000000000D+00  0.0000000000000D+00  0.0000000000000D+00
   333  3.3200000000000D+00  0.0000000000000D+00  0.0000000000000D+00
   334  3.3300000000000D+00  0.0000000000000D+00  0.0000000000000D+00
   335  3.3400000000000D+00  0.0000000000000D+00  0.0000000000000D+00
   336  3.3500000000000D+00  0.0000000000000D+00  0.0000000000000D+00
   337  3.3600000000000D+00  0.0000000000000D+00  0.0000000000000D+00
   338  3.3700000000000D+00  0.0000000000000D+00  0.0000000000000D+00
   339  3.3800000000000D+00  0.0000000000000D+00  0.0000000000000D+00
   340  3.3900000000000D+00  0.0000000000000D+00  0.0000000000000D+00
   341  3.4000000000000D+00  0.0000000000000D+00  0.0000000000000D+00
   342  3.4100000000000D+00  0.0000000000000D+00  0.0000000000000D+00
   343  3.4200000000000D+00  0.0000000000000D+00  0.0000000000000D+00
   344  3.4300000000000D+00  0.0000000000000D+00  0.0000000000000D+00
   345  3.4400000000000D+00  0.0000000000000D+00  0.0000000000000D+00
   346  3.4500000000000D+00  0.0000000000000D+00  0.0000000000000D+00
   347  3.4600000000000D+00  0.0000000000000D+00  0.0000000000000D+00
   348  3.4700000000000D+00  0.0000000000000D+00  0.0000000000000D+00
   349  3.4800000000000D+00  0.0000000000000D+00  0.0000000000000D+00
   350  3.4900000000000D+00  0.0000000000000D+00  0.0000000000000D+00
   351  3.5000000000000D+00  0.0000000000000D+00  0.0000000000000D+00
   352  3.5100000000000D+00  0.0000000000000D+00  0.0000000000000D+00
   353  3.5200000000000D+00  0.0000000000000D+00  0.0000000000000D+00
   354  3.5300000000000D+00  0.0000000000000D+00  0.0000000000000D+00
   355  3.5400000000000D+00  0.0000000000000D+00  0.0000000000000D+00
   356  3.5500000000000D+00  0.0000000000000D+00  0.0000000000000D+00
   357  3.5600000000000D+00  0.0000000000000D+00  0.0000000000000D+00
   358  3.5700000000000D+00  0.0000000000000D+00  0.0000000000000D+00
   359  3.5800000000000D+00  0.0000000000000D+00  0.0000000000000D+00
   360  3.5900000000000D+00  0.0000000000000D+00  0.0000000000000D+00
   361  3.6000000000000D+00  0.0000000000000D+00  0.0000000000000D+00
   362  3.6100000000000D+00  0.0000000000000D+00  0.0000000000000D+00
   363  3.6200000000000D+00  0.0000000000000D+00  0.0000000000000D+00
   364  3.6300000000000D+00  0.0000000000000D+00  0.0000000000000D+00
   365  3.6400000000000D+00  0.0000000000000D+00  0.0000000000000D+00
   366  3.6500000000000D+00  0.0000000000000D+00  0.0000000000000D+00
   367  3.6600000000000D+00  0.0000000000000D+00  0.0000000000000D+00
   368  3.6700000000000D+00  0.0000000000000D+00  0.0000000000000D+00
   369  3.6800000000000D+00  0.0000000000000D+00  0.0000000000000D+00
   370  3.6900000000000D+00  0.0000000000000D+00  0.0000000000000D+00
   371  3.7000000000000D+00  0.0000000000000D+00  0.0000000000000D+00
   372  3.7100000000000D+00  0.0000000000000D+00  0.0000000000000D+00
   373  3.7200000000000D+00  0.0000000000000D+00  0.0000000000000D+00
   374  3.7300000000000D+00  0.0000000000000D+00  0.0000000000000D+00
   375  3.7400000000000D+00  0.0000000000000D+00  0.0000000000000D+00
   376  3.7500000000000D+00  0.0000000000000D+00  0.0000000000000D+00
   377  3.7600000000000D+00  0.0000000000000D+00  0.0000000000000D+00
   378  3.7700000000000D+00  0.0000000000000D+00  0.0000000000000D+00
   379  3.7800000000000D+00  0.0000000000000D+00  0.0000000000000D+00
   380  3.7900000000000D+00  0.0000000000000D+00  0.0000000000000D+00
   381  3.8000000000000D+00  0.0000000000000D+00  0.0000000000000D+00
   382  3.8100000000000D+00  0.0000000000000D+00  0.0000000000000D+00
   383  3.8200000000000D+00  0.0000000000000D+00  0.0000000000000D+00
   384  3.8300000000000D+00  0.0000000000000D+00  0.0000000000000D+00
   385  3.8400000000000D+00  0.0000000000000D+00  0.0000000000000D+00
   386  3.8500000000000D+00  0.0000000000000D+00  0.0000000000000D+00
   387  3.8600000000000D+00  0.0000000000000D+00  0.0000000000000D+00
   388  3.8700000000000D+00  0.0000000000000D+00  0.0000000000000D+00
   389  3.8800000000000D+00  0.0000000000000D+00  0.0000000000000D+00
   390  3.8900000000000D+00  0.0000000000000D+00  0.0000000000000D+00
   391  3.9000000000000D+00  0.0000000000000D+00  0.0000000000000D+00
   392  3.9100000000000D+00  0.0000000000000D+00  0.0000000000000D+00
   393  3.9200000000000D+00  0.0000000000000D+00  0.0000000000000D+00
   394  3.9300000000000D+00  0.0000000000000D+00  0.0000000000000D+00
   395  3.9400000000000D+00  0.0000000000000D+00  0.0000000000000D+00
   396  3.9500000000000D+00  0.0000000000000D+00  0.0000000000000D+00
   397  3.9600000000000D+00  0.0000000000000D+00  0.0000000000000D+00
   398  3.9700000000000D+00  0.0000000000000D+00  0.0000000000000D+00
   399  3.9800000000000D+00  0.0000000000000D+00  0.0000000000000D+00
   400  3.9900000000000D+00  0.0000000000000D+00  0.0000000000000D+00
   401  4.0000000000000D+00  0.0000000000000D+00  0.0000000000000D+00
   402  4.0100000000000D+00  0.0000000000000D+00  0.0000000000000D+00
   403  4.0200000000000D+00  0.0000000000000D+00  0.0000000000000D+00
   404  4.0300000000000D+00  0.0000000000000D+00  0.0000000000000D+00
   405  4.0400000000000D+00  0.0000000000000D+00  0.0000000000000D+00
   406  4.0500000000000D+00  0.0000000000000D+00  0.0000000000000D+00
   407  4.0600000000000D+00  0.0000000000000D+00  0.0000000000000D+00
   408  4.0700000000000D+00  0.0000000000000D+00  0.0000000000000D+00
   409  4.0800000000000D+00  0.0000000000000D+00  0.0000000000000D+00
   410  4.0900000000000D+00  0.0000000000000D+00  0.0000000000000D+00
   411  4.1000000000000D+00  0.0000000000000D+00  0.0000000000000D+00
   412  4.1100000000000D+00  0.0000000000000D+00  0.0000000000000D+00
   413  4.1200000000000D+00  0.0000000000000D+00  0.0000000000000D+00
   414  4.1300000000000D+00  0.0000000000000D+00  0.0000000000000D+00
   415  4.1400000000000D+00  0.0000000000000D+00  0.0000000000000D+00
   416  4.1500000000000D+00  0.0000000000000D+00  0.0000000000000D+00
   417  4.1600000000000D+00  0.0000000000000D+00  0.0000000000000D+00
   418  4.1700000000000D+00  0.0000000000000D+00  0.0000000000000D+00
   419  4.1800000000000D+00  0.0000000000000D+00  0.0000000000000D+00
   420  4.1900000000000D+00  0.0000000000000D+00  0.0000000000000D+00
   421  4.2000000000000D+00  0.0000000000000D+00  0.0000000000000D+00
   422  4.2100000000000D+00  0.0000000000000D+00  0.0000000000000D+00
   423  4.2200000000000D+00  0.0000000000000D+00  0.0000000000000D+00