Ne    ONCVPSP-3.3.1  r_core=   2.65215   2.68397
     10.0000      8.0000      210904    zatom,zion,pspd
     8      11   1     4   600     0    pspcod,pspxc,lmax,lloc,mmax,r2well
  5.99000000  0.00000000  0.00000000    rchrg fchrg qchrg
     2     2     0     0     0    nproj
     1     1           extension_switch
   0                        -2.3001585073607D+00 -9.7880199158160D-01
     1  0.0000000000000D+00  3.0432878439512D-12  4.9616977193523D-12
     2  1.0000000000000D-02  2.3874044014666D-02 -4.4003068074153D-02
     3  2.0000000000000D-02  4.7747312146505D-02 -8.7918000831008D-02
     4  3.0000000000000D-02  7.1618982875012D-02 -1.3165685217305D-01
     5  4.0000000000000D-02  9.5488143605045D-02 -1.7513205398186D-01
     6  5.0000000000000D-02  1.1935374563053D-01 -2.1825660395764D-01
     7  6.0000000000000D-02  1.4321455969726D-01 -2.6094425208226D-01
     8  7.0000000000000D-02  1.6706913236087D-01 -3.0310968525277D-01
     9  8.0000000000000D-02  1.9091574333313D-01 -3.4466870963731D-01
    10  9.0000000000000D-02  2.1475236400578D-01 -3.8553843031137D-01
    11  1.0000000000000D-01  2.3857661733677D-01 -4.2563742773999D-01
    12  1.1000000000000D-01  2.6238573927840D-01 -4.6488593067980D-01
    13  1.2000000000000D-01  2.8617654192112D-01 -5.0320598508435D-01
    14  1.3000000000000D-01  3.0994537851994D-01 -5.4052161860734D-01
    15  1.4000000000000D-01  3.3368811056357D-01 -5.7675900030982D-01
    16  1.5000000000000D-01  3.5740007703809D-01 -6.1184659519065D-01
    17  1.6000000000000D-01  3.8107606602910D-01 -6.4571531317326D-01
    18  1.7000000000000D-01  4.0471028879671D-01 -6.7829865219664D-01
    19  1.8000000000000D-01  4.2829635644902D-01 -7.0953283507451D-01
    20  1.9000000000000D-01  4.5182725932896D-01 -7.3935693980306D-01
    21  2.0000000000000D-01  4.7529534921966D-01 -7.6771302301548D-01
    22  2.1000000000000D-01  4.9869232446224D-01 -7.9454623629939D-01
    23  2.2000000000000D-01  5.2200921806908D-01 -8.1980493511296D-01
    24  2.3000000000000D-01  5.4523638890382D-01 -8.4344078005452D-01
    25  2.4000000000000D-01  5.6836351598789D-01 -8.6540883026138D-01
    26  2.5000000000000D-01  5.9137959598115D-01 -8.8566762873407D-01
    27  2.6000000000000D-01  6.1427294387210D-01 -9.0417927940393D-01
    28  2.7000000000000D-01  6.3703119690082D-01 -9.2090951578336D-01
    29  2.8000000000000D-01  6.5964132172543D-01 -9.3582776106073D-01
    30  2.9000000000000D-01  6.8208962483014D-01 -9.4890717952410D-01
    31  3.0000000000000D-01  7.0436176616089D-01 -9.6012471922070D-01
    32  3.1000000000000D-01  7.2644277596171D-01 -9.6946114578212D-01
    33  3.2000000000000D-01  7.4831707477302D-01 -9.7690106736809D-01
    34  3.3000000000000D-01  7.6996849654054D-01 -9.8243295070489D-01
    35  3.4000000000000D-01  7.9138031477172D-01 -9.8604912821736D-01
    36  3.5000000000000D-01  8.1253527166472D-01 -9.8774579627656D-01
    37  3.6000000000000D-01  8.3341561012339D-01 -9.8752300460780D-01
    38  3.7000000000000D-01  8.5400310856075D-01 -9.8538463692657D-01
    39  3.8000000000000D-01  8.7427911838234D-01 -9.8133838289203D-01
    40  3.9000000000000D-01  8.9422460403067D-01 -9.7539570148969D-01
    41  4.0000000000000D-01  9.1382018546170D-01 -9.6757177597669D-01
    42  4.1000000000000D-01  9.3304618291514D-01 -9.5788546054401D-01
    43  4.2000000000000D-01  9.5188266383105D-01 -9.4635921887064D-01
    44  4.3000000000000D-01  9.7030949175681D-01 -9.3301905476466D-01
    45  4.4000000000000D-01  9.8830637708086D-01 -9.1789443510579D-01
    46  4.5000000000000D-01  1.0058529294220D+00 -9.0101820532238D-01
    47  4.6000000000000D-01  1.0229287114967D+00 -8.8242649765415D-01
    48  4.7000000000000D-01  1.0395132942808D+00 -8.6215863246879D-01
    49  4.8000000000000D-01  1.0555863132759D+00 -8.4025701291737D-01
    50  4.9000000000000D-01  1.0711275256887D+00 -8.1676701322857D-01
    51  5.0000000000000D-01  1.0861168683228D+00 -7.9173686095674D-01
    52  5.1000000000000D-01  1.1005345159852D+00 -7.6521751351220D-01
    53  5.2000000000000D-01  1.1143609402029D+00 -7.3726252931506D-01
    54  5.3000000000000D-01  1.1275769680439D+00 -7.0792793392542D-01
    55  5.4000000000000D-01  1.1401638408394D+00 -6.7727208151348D-01
    56  5.5000000000000D-01  1.1521032725982D+00 -6.4535551204281D-01
    57  5.6000000000000D-01  1.1633775079105D+00 -6.1224080454833D-01
    58  5.7000000000000D-01  1.1739693791341D+00 -5.7799242689824D-01
    59  5.8000000000000D-01  1.1838623626645D+00 -5.4267658243518D-01
    60  5.9000000000000D-01  1.1930406340861D+00 -5.0636105389732D-01
    61  6.0000000000000D-01  1.2014891220109D+00 -4.6911504502394D-01
    62  6.1000000000000D-01  1.2091935604122D+00 -4.3100902025332D-01
    63  6.2000000000000D-01  1.2161405392671D+00 -3.9211454292199D-01
    64  6.3000000000000D-01  1.2223175533263D+00 -3.5250411237572D-01
    65  6.4000000000000D-01  1.2277130488364D+00 -3.1225100040168D-01
    66  6.5000000000000D-01  1.2323164680473D+00 -2.7142908738984D-01
    67  6.6000000000000D-01  1.2361182913424D+00 -2.3011269862885D-01
    68  6.7000000000000D-01  1.2391100768421D+00 -1.8837644113821D-01
    69  6.8000000000000D-01  1.2412844973332D+00 -1.4629504143317D-01
    70  6.9000000000000D-01  1.2426353743920D+00 -1.0394318461345D-01
    71  7.0000000000000D-01  1.2431577095739D+00 -6.1395355159618D-02
    72  7.1000000000000D-01  1.2428477125559D+00 -1.8725679813114D-02
    73  7.2000000000000D-01  1.2417028261252D+00  2.3992227092691D-02
    74  7.3000000000000D-01  1.2397217479208D+00  6.6685415493229D-02
    75  7.4000000000000D-01  1.2369044488451D+00  1.0928174829845D-01
    76  7.5000000000000D-01  1.2332521880724D+00  1.5171004660836D-01
    77  7.6000000000000D-01  1.2287675245953D+00  1.9390023111567D-01
    78  7.7000000000000D-01  1.2234543252602D+00  2.3578345938576D-01
    79  7.8000000000000D-01  1.2173177692545D+00  2.7729225871834D-01
    80  7.9000000000000D-01  1.2103643490218D+00  3.1836065430942D-01
    81  8.0000000000000D-01  1.2026018675925D+00  3.5892429244765D-01
    82  8.1000000000000D-01  1.1940394323288D+00  3.9892055849466D-01
    83  8.2000000000000D-01  1.1846874450957D+00  4.3828868941550D-01
    84  8.3000000000000D-01  1.1745575888829D+00  4.7696988064199D-01
    85  8.4000000000000D-01  1.1636628109114D+00  5.1490738706897D-01
    86  8.5000000000000D-01  1.1520173022726D+00  5.5204661800118D-01
    87  8.6000000000000D-01  1.1396364741588D+00  5.8833522588628D-01
    88  8.7000000000000D-01  1.1265369307555D+00  6.2372318868779D-01
    89  8.8000000000000D-01  1.1127364388744D+00  6.5816288577016D-01
    90  8.9000000000000D-01  1.0982538944214D+00  6.9160916718661D-01
    91  9.0000000000000D-01  1.0831092857996D+00  7.2401941627926D-01
    92  9.1000000000000D-01  1.0673236543592D+00  7.5535360551951D-01
    93  9.2000000000000D-01  1.0509190520166D+00  7.8557434553569D-01
    94  9.3000000000000D-01  1.0339184961718D+00  8.1464692729327D-01
    95  9.4000000000000D-01  1.0163459220632D+00  8.4253935741168D-01
    96  9.5000000000000D-01  9.9822613270744D-01  8.6922238662017D-01
    97  9.6000000000000D-01  9.7958474657651D-01  8.9466953137320D-01
    98  9.7000000000000D-01  9.6044814317526D-01  9.1885708866369D-01
    99  9.8000000000000D-01  9.4084340668536D-01  9.4176414409015D-01
   100  9.9000000000000D-01  9.2079826784911D-01  9.6337257325082D-01
   101  1.0000000000000D+00  9.0034104427123D-01  9.8366703655484D-01
   102  1.0100000000000D+00  8.7950057932078D-01  1.0026349675566D+00
   103  1.0200000000000D+00  8.5830617981965D-01  1.0202665549355D+00
   104  1.0300000000000D+00  8.3678755270658D-01  1.0365547182587D+00
   105  1.0400000000000D+00  8.1497474086840D-01  1.0514950776785D+00
   106  1.0500000000000D+00  7.9289805833180D-01  1.0650859177310D+00
   107  1.0600000000000D+00  7.7058802500993D-01  1.0773281454162D+00
   108  1.0700000000000D+00  7.4807530119842D-01  1.0882252427505D+00
   109  1.0800000000000D+00  7.2539062201524D-01  1.0977832139986D+00
   110  1.0900000000000D+00  7.0256473197760D-01  1.1060105277988D+00
   111  1.1000000000000D+00  6.7962831990768D-01  1.1129180544088D+00
   112  1.1100000000000D+00  6.5661195435634D-01  1.1185189983084D+00
   113  1.1200000000000D+00  6.3354601973143D-01  1.1228288264058D+00
   114  1.1300000000000D+00  6.1046065331278D-01  1.1258651920984D+00
   115  1.1400000000000D+00  5.8738568333355D-01  1.1276478554521D+00
   116  1.1500000000000D+00  5.6435056830078D-01  1.1281985997639D+00
   117  1.1600000000000D+00  5.4138433772410D-01  1.1275411447838D+00
   118  1.1700000000000D+00  5.1851553441432D-01  1.1257010568715D+00
   119  1.1800000000000D+00  4.9577215850968D-01  1.1227056563723D+00
   120  1.1900000000000D+00  4.7318161337765D-01  1.1185839224955D+00
   121  1.2000000000000D+00  4.5077065353399D-01  1.1133663959843D+00
   122  1.2100000000000D+00  4.2856533471440D-01  1.1070850798652D+00
   123  1.2200000000000D+00  4.0659096622446D-01  1.0997733385673D+00
   124  1.2300000000000D+00  3.8487206568424D-01  1.0914657957000D+00
   125  1.2400000000000D+00  3.6343231627647D-01  1.0821982307777D+00
   126  1.2500000000000D+00  3.4229452659977D-01  1.0720074751788D+00
   127  1.2600000000000D+00  3.2148059321417D-01  1.0609313076215D+00
   128  1.2700000000000D+00  3.0101146595902D-01  1.0490083494365D+00
   129  1.2800000000000D+00  2.8090711611847D-01  1.0362779599156D+00
   130  1.2900000000000D+00  2.6118650748982D-01  1.0227801320045D+00
   131  1.3000000000000D+00  2.4186757040599D-01  1.0085553886054D+00
   132  1.3100000000000D+00  2.2296717875804D-01  9.9364467975342D-01
   133  1.3200000000000D+00  2.0450113004048D-01  9.7808928091382D-01
   134  1.3300000000000D+00  1.8648412844286D-01  9.6193069264698D-01
   135  1.3400000000000D+00  1.6892977100160D-01  9.4521054188272D-01
   136  1.3500000000000D+00  1.5185053680288D-01  9.2797048502352D-01
   137  1.3600000000000D+00  1.3525777923542D-01  9.1025211310358D-01
   138  1.3700000000000D+00  1.1916172127159D-01  8.9209685921308D-01
   139  1.3800000000000D+00  1.0357145373914D-01  8.7354590837608D-01
   140  1.3900000000000D+00  8.8494936561454D-02  8.5464011009103D-01
   141  1.4000000000000D+00  7.3939002902298D-02  8.3541989369270D-01
   142  1.4100000000000D+00  5.9909366166734D-02  8.1592518671101D-01
   143  1.4200000000000D+00  4.6410629796913D-02  7.9619533638991D-01
   144  1.4300000000000D+00  3.3446299775576D-02  7.7626903448728D-01
   145  1.4400000000000D+00  2.1018799776065D-02  7.5618424551905D-01
   146  1.4500000000000D+00  9.1294888523848D-03  7.3597813853850D-01
   147  1.4600000000000D+00 -2.2213184154360D-03  7.1568702257325D-01
   148  1.4700000000000D+00 -1.3034329422498D-02  6.9534628581993D-01
   149  1.4800000000000D+00 -2.3311248804560D-02  6.7499033865299D-01
   150  1.4900000000000D+00 -3.3054751564100D-02  6.5465256056141D-01
   151  1.5000000000000D+00 -4.2268454195703D-02  6.3436525101940D-01
   152  1.5100000000000D+00 -5.0956883915588D-02  6.1415958438508D-01
   153  1.5200000000000D+00 -5.9125446136397D-02  5.9406556882390D-01
   154  1.5300000000000D+00 -6.6780390310129D-02  5.7411200929628D-01
   155  1.5400000000000D+00 -7.3928774276173D-02  5.5432647462024D-01
   156  1.5500000000000D+00 -8.0578427252053D-02  5.3473526858351D-01
   157  1.5600000000000D+00 -8.6737911602232D-02  5.1536340513382D-01
   158  1.5700000000000D+00 -9.2416483529004D-02  4.9623458755954D-01
   159  1.5800000000000D+00 -9.7624052823630D-02  4.7737119170090D-01
   160  1.5900000000000D+00 -1.0237114181998D-01  4.5879425305935D-01
   161  1.6000000000000D+00 -1.0666884369425D-01  4.4052345783213D-01
   162  1.6100000000000D+00 -1.1052878024683D-01  4.2257713772517D-01
   163  1.6200000000000D+00 -1.1396305931302D-01  4.0497226853646D-01
   164  1.6300000000000D+00 -1.1698423193256D-01  3.8772447236373D-01
   165  1.6400000000000D+00 -1.1960524942301D-01  3.7084802339047D-01
   166  1.6500000000000D+00 -1.2183942048196D-01  3.5435585710585D-01
   167  1.6600000000000D+00 -1.2370036845686D-01  3.3825958287963D-01
   168  1.6700000000000D+00 -1.2520198890273D-01  3.2256949974659D-01
   169  1.6800000000000D+00 -1.2635840755761D-01  3.0729461529602D-01
   170  1.6900000000000D+00 -1.2718393884973D-01  2.9244266751597D-01
   171  1.7000000000000D+00 -1.2769304505659D-01  2.7802014946997D-01
   172  1.7100000000000D+00 -1.2790029622045D-01  2.6403233664784D-01
   173  1.7200000000000D+00 -1.2782033093261D-01  2.5048331685736D-01
   174  1.7300000000000D+00 -1.2746781807547D-01  2.3737602248861D-01
   175  1.7400000000000D+00 -1.2685741963207D-01  2.2471226501166D-01
   176  1.7500000000000D+00 -1.2600375462802D-01  2.1249277153045D-01
   177  1.7600000000000D+00 -1.2492136432077D-01  2.0071722324946D-01
   178  1.7700000000000D+00 -1.2362467866607D-01  1.8938429567103D-01
   179  1.7800000000000D+00 -1.2212798419249D-01  1.7849170037434D-01
   180  1.7900000000000D+00 -1.2044539326606D-01  1.6803622819712D-01
   181  1.8000000000000D+00 -1.1859081490381D-01  1.5801379365875D-01
   182  1.8100000000000D+00 -1.1657792705841D-01  1.4841948046279D-01
   183  1.8200000000000D+00 -1.1442015056789D-01  1.3924758789411D-01
   184  1.8300000000000D+00 -1.1213062463609D-01  1.3049167797992D-01
   185  1.8400000000000D+00 -1.0972218405139D-01  1.2214462320132D-01
   186  1.8500000000000D+00 -1.0720733799547D-01  1.1419865465447D-01
   187  1.8600000000000D+00 -1.0459825060637D-01  1.0664541043769D-01
   188  1.8700000000000D+00 -1.0190672319075D-01  9.9475984168652D-02
   189  1.8800000000000D+00 -9.9144178162513D-02  9.2680973431786D-02
   190  1.8900000000000D+00 -9.6321644677162D-02  8.6250528030311D-02
   191  1.9000000000000D+00 -9.3449745930180D-02  8.0174397909457D-02
   192  1.9100000000000D+00 -9.0538688180358D-02  7.4441980551854D-02
   193  1.9200000000000D+00 -8.7598251350648D-02  6.9042367824650D-02
   194  1.9300000000000D+00 -8.4637781346919D-02  6.3964391978426D-02
   195  1.9400000000000D+00 -8.1666183884088D-02  5.9196670876936D-02
   196  1.9500000000000D+00 -7.8691919946062D-02  5.4727652133316D-02
   197  1.9600000000000D+00 -7.5723002720043D-02  5.0545656208746D-02
   198  1.9700000000000D+00 -7.2766996021178D-02  4.6638918267944D-02
   199  1.9800000000000D+00 -6.9831014161506D-02  4.2995628691928D-02
   200  1.9900000000000D+00 -6.6921723150267D-02  3.9603972267862D-02
   201  2.0000000000000D+00 -6.4045343272968D-02  3.6452165746074D-02
   202  2.0100000000000D+00 -6.1207652871438D-02  3.3528493979448D-02
   203  2.0200000000000D+00 -5.8413993369208D-02  3.0821344269109D-02
   204  2.0300000000000D+00 -5.5669275409132D-02  2.8319239084421D-02
   205  2.0400000000000D+00 -5.2977986061027D-02  2.6010867002269D-02
   206  2.0500000000000D+00 -5.0344197048729D-02  2.3885111729720D-02
   207  2.0600000000000D+00 -4.7771573887144D-02  2.1931079439385D-02
   208  2.0700000000000D+00 -4.5263385903725D-02  2.0138123974538D-02
   209  2.0800000000000D+00 -4.2822517044041D-02  1.8495870303335D-02
   210  2.0900000000000D+00 -4.0451477400453D-02  1.6994235929325D-02
   211  2.1000000000000D+00 -3.8152415391403D-02  1.5623450288799D-02
   212  2.1100000000000D+00 -3.5927130535732D-02  1.4374072324241D-02
   213  2.1200000000000D+00 -3.3777086710799D-02  1.3237005852839D-02
   214  2.1300000000000D+00 -3.1703425885126D-02  1.2203513152841D-02
   215  2.1400000000000D+00 -2.9706982205116D-02  1.1265226489722D-02
   216  2.1500000000000D+00 -2.7788296377438D-02  1.0414157652456D-02
   217  2.1600000000000D+00 -2.5947630348788D-02  9.6427057426328D-03
   218  2.1700000000000D+00 -2.4184982082441D-02  8.9436628381704D-03
   219  2.1800000000000D+00 -2.2500100524025D-02  8.3102179852972D-03
   220  2.1900000000000D+00 -2.0892500603074D-02  7.7359593251442D-03
   221  2.2000000000000D+00 -1.9361478195449D-02  7.2148743756937D-03
   222  2.2100000000000D+00 -1.7906125134005D-02  6.7413487764871D-03
   223  2.2200000000000D+00 -1.6525344004104D-02  6.3101632013610D-03
   224  2.2300000000000D+00 -1.5217862848747D-02  5.9164887717549D-03
   225  2.2400000000000D+00 -1.3982249712335D-02  5.5558809894214D-03
   226  2.2500000000000D+00 -1.2816926835770D-02  5.2242720860732D-03
   227  2.2600000000000D+00 -1.1720184699200D-02  4.9179621298565D-03
   228  2.2700000000000D+00 -1.0690195683413D-02  4.6336087669457D-03
   229  2.2800000000000D+00 -9.7250273512889D-03  4.3682157184900D-03
   230  2.2900000000000D+00 -8.8226554881170D-03  4.1191202394571D-03
   231  2.3000000000000D+00 -7.9809765819537D-03  3.8839794270090D-03
   232  2.3100000000000D+00 -7.1978199550369D-03  3.6607556168068D-03
   233  2.3200000000000D+00 -6.4709595152638D-03  3.4477009338480D-03
   234  2.3300000000000D+00 -5.7981248938037D-03  3.2433410108740D-03
   235  2.3400000000000D+00 -5.1770122385665D-03  3.0464580596662D-03
   236  2.3500000000000D+00 -4.6052944982854D-03  2.8560733444428D-03
   237  2.3600000000000D+00 -4.0806311298261D-03  2.6714291558658D-03
   238  2.3700000000000D+00 -3.6006774322133D-03  2.4919703696817D-03
   239  2.3800000000000D+00 -3.1630933010335D-03  2.3173257135625D-03
   240  2.3900000000000D+00 -2.7655514601911D-03  2.1472888307131D-03
   241  2.4000000000000D+00 -2.4057453009356D-03  1.9817991540920D-03
   242  2.4100000000000D+00 -2.0813961180001D-03  1.8209228291915D-03
   243  2.4200000000000D+00 -1.7902598822120D-03  1.6648336854325D-03
   244  2.4300000000000D+00 -1.5301336118536D-03  1.5137942361055D-03
   245  2.4400000000000D+00 -1.2988611629825D-03  1.3681370854915D-03
   246  2.4500000000000D+00 -1.0943386121309D-03  1.2282465826009D-03
   247  2.4600000000000D+00 -9.1451923487139D-04  1.0945407267565D-03
   248  2.4700000000000D+00 -7.5741797166109D-04  9.6745381621084D-04
   249  2.4800000000000D+00 -6.2111552427417D-04  8.4741949841089D-04
   250  2.4900000000000D+00 -5.0376205976628D-04  7.3485431131162D-04
   251  2.5000000000000D+00 -4.0358049626798D-04  6.3014222829582D-04
   252  2.5100000000000D+00 -3.1886944126961D-04  5.3361976579281D-04
   253  2.5200000000000D+00 -2.4800577006348D-04  4.4556177215295D-04
   254  2.5300000000000D+00 -1.8944687801270D-04  3.6616845237995D-04
   255  2.5400000000000D+00 -1.4173260897129D-04  2.9555308991767D-04
   256  2.5500000000000D+00 -1.0348685875197D-04  2.3373058435146D-04
   257  2.5600000000000D+00 -7.3418839183378D-05  1.8060857109587D-04
   258  2.5700000000000D+00 -5.0323777950081D-05  1.3598227277571D-04
   259  2.5800000000000D+00 -3.3086164551034D-05  9.9498733200260D-05
   260  2.5900000000000D+00 -2.0676796427529D-05  7.0677737390562D-05
   261  2.6000000000000D+00 -1.2147172336137D-05  4.8749233321965D-05
   262  2.6100000000000D+00 -6.6576454900525D-06  3.3311635347809D-05
   263  2.6200000000000D+00 -3.4449992970368D-06  2.3542465713021D-05
   264  2.6300000000000D+00 -1.8843294887101D-06  1.8989896592720D-05
   265  2.6400000000000D+00 -1.2816217208717D-06  1.6966683031171D-05
   266  2.6500000000000D+00 -1.1015914423627D-06  1.5353954322514D-05
   267  2.6600000000000D+00 -8.5803014703934D-07  1.1562794122268D-05
   268  2.6700000000000D+00 -5.0945401152060D-07  6.5073350911385D-06
   269  2.6800000000000D+00 -1.3316112632763D-07  1.6109601969632D-06
   270  2.6900000000000D+00  7.8290984175602D-08 -1.0807187079470D-06
   271  2.7000000000000D+00  1.0959523226178D-07 -1.4885148444670D-06
   272  2.7100000000000D+00  5.3202778110031D-08 -7.1117844279871D-07
   273  2.7200000000000D+00 -8.6321692914548D-09  1.4544181155019D-07
   274  2.7300000000000D+00 -1.9445120524179D-08  3.3131399118106D-07
   275  2.7400000000000D+00 -1.3353498043379D-08  2.2970540887127D-07
   276  2.7500000000000D+00  4.2557750445856D-10 -5.8792133894413D-09
   277  2.7600000000000D+00  2.8019785910765D-09 -3.8708413572149D-08
   278  2.7700000000000D+00  2.6561378697223D-09 -3.6693671926435D-08
   279  2.7800000000000D+00  4.7940192515271D-10 -6.6227800759054D-09
   280  2.7900000000000D+00  0.0000000000000D+00  0.0000000000000D+00
   281  2.8000000000000D+00  0.0000000000000D+00  0.0000000000000D+00
   282  2.8100000000000D+00  0.0000000000000D+00  0.0000000000000D+00
   283  2.8200000000000D+00  0.0000000000000D+00  0.0000000000000D+00
   284  2.8300000000000D+00  0.0000000000000D+00  0.0000000000000D+00
   285  2.8400000000000D+00  0.0000000000000D+00  0.0000000000000D+00
   286  2.8500000000000D+00  0.0000000000000D+00  0.0000000000000D+00
   287  2.8600000000000D+00  0.0000000000000D+00  0.0000000000000D+00
   288  2.8700000000000D+00  0.0000000000000D+00  0.0000000000000D+00
   289  2.8800000000000D+00  0.0000000000000D+00  0.0000000000000D+00
   290  2.8900000000000D+00  0.0000000000000D+00  0.0000000000000D+00
   291  2.9000000000000D+00  0.0000000000000D+00  0.0000000000000D+00
   292  2.9100000000000D+00  0.0000000000000D+00  0.0000000000000D+00
   293  2.9200000000000D+00  0.0000000000000D+00  0.0000000000000D+00
   294  2.9300000000000D+00  0.0000000000000D+00  0.0000000000000D+00
   295  2.9400000000000D+00  0.0000000000000D+00  0.0000000000000D+00
   296  2.9500000000000D+00  0.0000000000000D+00  0.0000000000000D+00
   297  2.9600000000000D+00  0.0000000000000D+00  0.0000000000000D+00
   298  2.9700000000000D+00  0.0000000000000D+00  0.0000000000000D+00
   299  2.9800000000000D+00  0.0000000000000D+00  0.0000000000000D+00
   300  2.9900000000000D+00  0.0000000000000D+00  0.0000000000000D+00
   301  3.0000000000000D+00  0.0000000000000D+00  0.0000000000000D+00
   302  3.0100000000000D+00  0.0000000000000D+00  0.0000000000000D+00
   303  3.0200000000000D+00  0.0000000000000D+00  0.0000000000000D+00
   304  3.0300000000000D+00  0.0000000000000D+00  0.0000000000000D+00
   305  3.0400000000000D+00  0.0000000000000D+00  0.0000000000000D+00
   306  3.0500000000000D+00  0.0000000000000D+00  0.0000000000000D+00
   307  3.0600000000000D+00  0.0000000000000D+00  0.0000000000000D+00
   308  3.0700000000000D+00  0.0000000000000D+00  0.0000000000000D+00
   309  3.0800000000000D+00  0.0000000000000D+00  0.0000000000000D+00
   310  3.0900000000000D+00  0.0000000000000D+00  0.0000000000000D+00
   311  3.1000000000000D+00  0.0000000000000D+00  0.0000000000000D+00
   312  3.1100000000000D+00  0.0000000000000D+00  0.0000000000000D+00
   313  3.1200000000000D+00  0.0000000000000D+00  0.0000000000000D+00
   314  3.1300000000000D+00  0.0000000000000D+00  0.0000000000000D+00
   315  3.1400000000000D+00  0.0000000000000D+00  0.0000000000000D+00
   316  3.1500000000000D+00  0.0000000000000D+00  0.0000000000000D+00
   317  3.1600000000000D+00  0.0000000000000D+00  0.0000000000000D+00
   318  3.1700000000000D+00  0.0000000000000D+00  0.0000000000000D+00
   319  3.1800000000000D+00  0.0000000000000D+00  0.0000000000000D+00
   320  3.1900000000000D+00  0.0000000000000D+00  0.0000000000000D+00
   321  3.2000000000000D+00  0.0000000000000D+00  0.0000000000000D+00
   322  3.2100000000000D+00  0.0000000000000D+00  0.0000000000000D+00
   323  3.2200000000000D+00  0.0000000000000D+00  0.0000000000000D+00
   324  3.2300000000000D+00  0.0000000000000D+00  0.0000000000000D+00
   325  3.2400000000000D+00  0.0000000000000D+00  0.0000000000000D+00
   326  3.2500000000000D+00  0.0000000000000D+00  0.0000000000000D+00
   327  3.2600000000000D+00  0.0000000000000D+00  0.0000000000000D+00
   328  3.2700000000000D+00  0.0000000000000D+00  0.0000000000000D+00
   329  3.2800000000000D+00  0.0000000000000D+00  0.0000000000000D+00
   330  3.2900000000000D+00  0.0000000000000D+00  0.0000000000000D+00
   331  3.3000000000000D+00  0.0000000000000D+00  0.0000000000000D+00
   332  3.3100000000000D+00  0.0000000000000D+00  0.0000000000000D+00
   333  3.3200000000000D+00  0.0000000000000D+00  0.0000000000000D+00
   334  3.3300000000000D+00  0.0000000000000D+00  0.0000000000000D+00
   335  3.3400000000000D+00  0.0000000000000D+00  0.0000000000000D+00
   336  3.3500000000000D+00  0.0000000000000D+00  0.0000000000000D+00
   337  3.3600000000000D+00  0.0000000000000D+00  0.0000000000000D+00
   338  3.3700000000000D+00  0.0000000000000D+00  0.0000000000000D+00
   339  3.3800000000000D+00  0.0000000000000D+00  0.0000000000000D+00
   340  3.3900000000000D+00  0.0000000000000D+00  0.0000000000000D+00
   341  3.4000000000000D+00  0.0000000000000D+00  0.0000000000000D+00
   342  3.4100000000000D+00  0.0000000000000D+00  0.0000000000000D+00
   343  3.4200000000000D+00  0.0000000000000D+00  0.0000000000000D+00
   344  3.4300000000000D+00  0.0000000000000D+00  0.0000000000000D+00
   345  3.4400000000000D+00  0.0000000000000D+00  0.0000000000000D+00
   346  3.4500000000000D+00  0.0000000000000D+00  0.0000000000000D+00
   347  3.4600000000000D+00  0.0000000000000D+00  0.0000000000000D+00
   348  3.4700000000000D+00  0.0000000000000D+00  0.0000000000000D+00
   349  3.4800000000000D+00  0.0000000000000D+00  0.0000000000000D+00
   350  3.4900000000000D+00  0.0000000000000D+00  0.0000000000000D+00
   351  3.5000000000000D+00  0.0000000000000D+00  0.0000000000000D+00
   352  3.5100000000000D+00  0.0000000000000D+00  0.0000000000000D+00
   353  3.5200000000000D+00  0.0000000000000D+00  0.0000000000000D+00
   354  3.5300000000000D+00  0.0000000000000D+00  0.0000000000000D+00
   355  3.5400000000000D+00  0.0000000000000D+00  0.0000000000000D+00
   356  3.5500000000000D+00  0.0000000000000D+00  0.0000000000000D+00
   357  3.5600000000000D+00  0.0000000000000D+00  0.0000000000000D+00
   358  3.5700000000000D+00  0.0000000000000D+00  0.0000000000000D+00
   359  3.5800000000000D+00  0.0000000000000D+00  0.0000000000000D+00
   360  3.5900000000000D+00  0.0000000000000D+00  0.0000000000000D+00
   361  3.6000000000000D+00  0.0000000000000D+00  0.0000000000000D+00
   362  3.6100000000000D+00  0.0000000000000D+00  0.0000000000000D+00
   363  3.6200000000000D+00  0.0000000000000D+00  0.0000000000000D+00
   364  3.6300000000000D+00  0.0000000000000D+00  0.0000000000000D+00
   365  3.6400000000000D+00  0.0000000000000D+00  0.0000000000000D+00
   366  3.6500000000000D+00  0.0000000000000D+00  0.0000000000000D+00
   367  3.6600000000000D+00  0.0000000000000D+00  0.0000000000000D+00
   368  3.6700000000000D+00  0.0000000000000D+00  0.0000000000000D+00
   369  3.6800000000000D+00  0.0000000000000D+00  0.0000000000000D+00
   370  3.6900000000000D+00  0.0000000000000D+00  0.0000000000000D+00
   371  3.7000000000000D+00  0.0000000000000D+00  0.0000000000000D+00
   372  3.7100000000000D+00  0.0000000000000D+00  0.0000000000000D+00
   373  3.7200000000000D+00  0.0000000000000D+00  0.0000000000000D+00
   374  3.7300000000000D+00  0.0000000000000D+00  0.0000000000000D+00
   375  3.7400000000000D+00  0.0000000000000D+00  0.0000000000000D+00
   376  3.7500000000000D+00  0.0000000000000D+00  0.0000000000000D+00
   377  3.7600000000000D+00  0.0000000000000D+00  0.0000000000000D+00
   378  3.7700000000000D+00  0.0000000000000D+00  0.0000000000000D+00
   379  3.7800000000000D+00  0.0000000000000D+00  0.0000000000000D+00
   380  3.7900000000000D+00  0.0000000000000D+00  0.0000000000000D+00
   381  3.8000000000000D+00  0.0000000000000D+00  0.0000000000000D+00
   382  3.8100000000000D+00  0.0000000000000D+00  0.0000000000000D+00
   383  3.8200000000000D+00  0.0000000000000D+00  0.0000000000000D+00
   384  3.8300000000000D+00  0.0000000000000D+00  0.0000000000000D+00
   385  3.8400000000000D+00  0.0000000000000D+00  0.0000000000000D+00
   386  3.8500000000000D+00  0.0000000000000D+00  0.0000000000000D+00
   387  3.8600000000000D+00  0.0000000000000D+00  0.0000000000000D+00
   388  3.8700000000000D+00  0.0000000000000D+00  0.0000000000000D+00
   389  3.8800000000000D+00  0.0000000000000D+00  0.0000000000000D+00
   390  3.8900000000000D+00  0.0000000000000D+00  0.0000000000000D+00
   391  3.9000000000000D+00  0.0000000000000D+00  0.0000000000000D+00
   392  3.9100000000000D+00  0.0000000000000D+00  0.0000000000000D+00
   393  3.9200000000000D+00  0.0000000000000D+00  0.0000000000000D+00
   394  3.9300000000000D+00  0.0000000000000D+00  0.0000000000000D+00
   395  3.9400000000000D+00  0.0000000000000D+00  0.0000000000000D+00
   396  3.9500000000000D+00  0.0000000000000D+00  0.0000000000000D+00
   397  3.9600000000000D+00  0.0000000000000D+00  0.0000000000000D+00
   398  3.9700000000000D+00  0.0000000000000D+00  0.0000000000000D+00
   399  3.9800000000000D+00  0.0000000000000D+00  0.0000000000000D+00
   400  3.9900000000000D+00  0.0000000000000D+00  0.0000000000000D+00
   401  4.0000000000000D+00  0.0000000000000D+00  0.0000000000000D+00
   402  4.0100000000000D+00  0.0000000000000D+00  0.0000000000000D+00
   403  4.0200000000000D+00  0.0000000000000D+00  0.0000000000000D+00
   404  4.0300000000000D+00  0.0000000000000D+00  0.0000000000000D+00
   405  4.0400000000000D+00  0.0000000000000D+00  0.0000000000000D+00
   406  4.0500000000000D+00  0.0000000000000D+00  0.0000000000000D+00
   407  4.0600000000000D+00  0.0000000000000D+00  0.0000000000000D+00
   408  4.0700000000000D+00  0.0000000000000D+00  0.0000000000000D+00
   409  4.0800000000000D+00  0.0000000000000D+00  0.0000000000000D+00
   410  4.0900000000000D+00  0.0000000000000D+00  0.0000000000000D+00
   411  4.1000000000000D+00  0.0000000000000D+00  0.0000000000000D+00
   412  4.1100000000000D+00  0.0000000000000D+00  0.0000000000000D+00
   413  4.1200000000000D+00  0.0000000000000D+00  0.0000000000000D+00
   414  4.1300000000000D+00  0.0000000000000D+00  0.0000000000000D+00
   415  4.1400000000000D+00  0.0000000000000D+00  0.0000000000000D+00
   416  4.1500000000000D+00  0.0000000000000D+00  0.0000000000000D+00
   417  4.1600000000000D+00  0.0000000000000D+00  0.0000000000000D+00
   418  4.1700000000000D+00  0.0000000000000D+00  0.0000000000000D+00
   419  4.1800000000000D+00  0.0000000000000D+00  0.0000000000000D+00
   420  4.1900000000000D+00  0.0000000000000D+00  0.0000000000000D+00
   421  4.2000000000000D+00  0.0000000000000D+00  0.0000000000000D+00
   422  4.2100000000000D+00  0.0000000000000D+00  0.0000000000000D+00
   423  4.2200000000000D+00  0.0000000000000D+00  0.0000000000000D+00