Ni    ONCVPSP-3.3.1  r_core=   2.20931   2.20931   2.28980
     28.0000     18.0000      210904    zatom,zion,pspd
     8      11   2     4   600     0    pspcod,pspxc,lmax,lloc,mmax,r2well
  5.99000000  0.00000000  0.00000000    rchrg fchrg qchrg
     2     2     2     0     0    nproj
     1     1           extension_switch
   0                        -3.4405204938623D+00 -2.1577010806560D-01
     1  0.0000000000000D+00 -6.7407190940116D-13 -7.3882011619730D-12
     2  1.0000000000000D-02  4.1768651219480D-02 -3.3381553436709D-02
     3  2.0000000000000D-02  8.3492802133119D-02 -6.6694190900048D-02
     4  3.0000000000000D-02  1.2512801893843D-01 -9.9869094418547D-02
     5  4.0000000000000D-02  1.6663000072734D-01 -1.3283764209627D-01
     6  5.0000000000000D-02  2.0795464565285D-01 -1.6553150632806D-01
     7  6.0000000000000D-02  2.4905811675949D-01 -1.9788275222251D-01
     8  7.0000000000000D-02  2.8989690736631D-01 -2.2982393629319D-01
     9  8.0000000000000D-02  3.3042790589180D-01 -2.6128820547128D-01
    10  9.0000000000000D-02  3.7060846001096D-01 -2.9220939648378D-01
    11  1.0000000000000D-01  4.1039644003580D-01 -3.2252213563046D-01
    12  1.1000000000000D-01  4.4975030141166D-01 -3.5216193898047D-01
    13  1.2000000000000D-01  4.8862914622315D-01 -3.8106531299592D-01
    14  1.3000000000000D-01  5.2699278360498D-01 -4.0916985557407D-01
    15  1.4000000000000D-01  5.6480178895467D-01 -4.3641435748354D-01
    16  1.5000000000000D-01  6.0201756184589D-01 -4.6273890415256D-01
    17  1.6000000000000D-01  6.3860238254341D-01 -4.8808497774816D-01
    18  1.7000000000000D-01  6.7451946702246D-01 -5.1239555946613D-01
    19  1.8000000000000D-01  7.0973302039798D-01 -5.3561523193149D-01
    20  1.9000000000000D-01  7.4420828867166D-01 -5.5769028158811D-01
    21  2.0000000000000D-01  7.7791160870717D-01 -5.7856880093575D-01
    22  2.1000000000000D-01  8.1081045634700D-01 -5.9820079045094D-01
    23  2.2000000000000D-01  8.4287349258729D-01 -6.1653826000736D-01
    24  2.3000000000000D-01  8.7407060773011D-01 -6.3353532959019D-01
    25  2.4000000000000D-01  9.0437296343598D-01 -6.4914832907810D-01
    26  2.5000000000000D-01  9.3375303260286D-01 -6.6333589684659D-01
    27  2.6000000000000D-01  9.6218463700155D-01 -6.7605907692683D-01
    28  2.7000000000000D-01  9.8964298260101D-01 -6.8728141443556D-01
    29  2.8000000000000D-01  1.0161046925212D+00 -6.9696904897406D-01
    30  2.9000000000000D-01  1.0415478375546D+00 -7.0509080567832D-01
    31  3.0000000000000D-01  1.0659519642031D+00 -7.1161828358685D-01
    32  3.1000000000000D-01  1.0892981201788D+00 -7.1652594098017D-01
    33  3.2000000000000D-01  1.1115688773243D+00 -7.1979117733358D-01
    34  3.3000000000000D-01  1.1327483519110D+00 -7.2139441151550D-01
    35  3.4000000000000D-01  1.1528222222791D+00 -7.2131915585558D-01
    36  3.5000000000000D-01  1.1717777437876D+00 -7.1955208570104D-01
    37  3.6000000000000D-01  1.1896037610477D+00 -7.1608310407607D-01
    38  3.7000000000000D-01  1.2062907174172D+00 -7.1090540105803D-01
    39  3.8000000000000D-01  1.2218306617407D+00 -7.0401550748472D-01
    40  3.9000000000000D-01  1.2362172523217D+00 -6.9541334261113D-01
    41  4.0000000000000D-01  1.2494457581220D+00 -6.8510225533934D-01
    42  4.1000000000000D-01  1.2615130571863D+00 -6.7308905865419D-01
    43  4.2000000000000D-01  1.2724176322966D+00 -6.5938405690798D-01
    44  4.3000000000000D-01  1.2821595638650D+00 -6.4400106561123D-01
    45  4.4000000000000D-01  1.2907405200808D+00 -6.2695742340223D-01
    46  4.5000000000000D-01  1.2981637443307D+00 -6.0827399588694D-01
    47  4.6000000000000D-01  1.3044340399189D+00 -5.8797517106177D-01
    48  4.7000000000000D-01  1.3095577521179D+00 -5.6608884605465D-01
    49  4.8000000000000D-01  1.3135427475845D+00 -5.4264640494626D-01
    50  4.9000000000000D-01  1.3163983911857D+00 -5.1768268746058D-01
    51  5.0000000000000D-01  1.3181355202786D+00 -4.9123594834410D-01
    52  5.1000000000000D-01  1.3187664164978D+00 -4.6334780728531D-01
    53  5.2000000000000D-01  1.3183047751078D+00 -4.3406318925963D-01
    54  5.3000000000000D-01  1.3167656719823D+00 -4.0343025522068D-01
    55  5.4000000000000D-01  1.3141655282773D+00 -3.7150032309602D-01
    56  5.5000000000000D-01  1.3105220728722D+00 -3.3832777908402D-01
    57  5.6000000000000D-01  1.3058543026538D+00 -3.0396997928792D-01
    58  5.7000000000000D-01  1.3001824407262D+00 -2.6848714176433D-01
    59  5.8000000000000D-01  1.2935278926327D+00 -2.3194222910472D-01
    60  5.9000000000000D-01  1.2859132006797D+00 -1.9440082171041D-01
    61  6.0000000000000D-01  1.2773619964583D+00 -1.5593098196410D-01
    62  6.1000000000000D-01  1.2678989516611D+00 -1.1660310954396D-01
    63  6.2000000000000D-01  1.2575497272974D+00 -7.6489788167963D-02
    64  6.3000000000000D-01  1.2463409214136D+00 -3.5665624099301D-02
    65  6.4000000000000D-01  1.2343000154260D+00  5.7929232155399D-03
    66  6.5000000000000D-01  1.2214553191808D+00  4.7807717963015D-02
    67  6.6000000000000D-01  1.2078359148556D+00  9.0299131780538D-02
    68  6.7000000000000D-01  1.1934715998208D+00  1.3318623408522D-01
    69  6.8000000000000D-01  1.1783928285806D+00  1.7638698838503D-01
    70  6.9000000000000D-01  1.1626306539170D+00  2.1981845400898D-01
    71  7.0000000000000D-01  1.1462166673606D+00  2.6339699265920D-01
    72  7.1000000000000D-01  1.1291829391142D+00  3.0703847915690D-01
    73  7.2000000000000D-01  1.1115619575555D+00  3.5065851572471D-01
    74  7.3000000000000D-01  1.0933865684484D+00  3.9417264912200D-01
    75  7.4000000000000D-01  1.0746899139895D+00  4.3749658992555D-01
    76  7.5000000000000D-01  1.0555053718201D+00  4.8054643322746D-01
    77  7.6000000000000D-01  1.0358664941324D+00  5.2323888000397D-01
    78  7.7000000000000D-01  1.0158069469975D+00  5.6549145839438D-01
    79  7.8000000000000D-01  9.9536045004390D-01  6.0722274411768D-01
    80  7.9000000000000D-01  9.7456071661307D-01  6.4835257924640D-01
    81  8.0000000000000D-01  9.5344139451801D-01  6.8880228855285D-01
    82  8.1000000000000D-01  9.3203600752809D-01  7.2849489264126D-01
    83  8.2000000000000D-01  9.1037789770288D-01  7.6735531708259D-01
    84  8.3000000000000D-01  8.8850016869437D-01  8.0531059677414D-01
    85  8.4000000000000D-01  8.6643563013500D-01  8.4229007475663D-01
    86  8.5000000000000D-01  8.4421674322578D-01  8.7822559473394D-01
    87  8.6000000000000D-01  8.2187556763569D-01  9.1305168655858D-01
    88  8.7000000000000D-01  7.9944370982019D-01  9.4670574396577D-01
    89  8.8000000000000D-01  7.7695227286282D-01  9.7912819386351D-01
    90  8.9000000000000D-01  7.5443180793977D-01  1.0102626565133D+00
    91  9.0000000000000D-01  7.3191226750334D-01  1.0400560959670D+00
    92  9.1000000000000D-01  7.0942296027529D-01  1.0684589601589D+00
    93  9.2000000000000D-01  6.8699250813662D-01  1.0954253100907D+00
    94  9.3000000000000D-01  6.6464880499508D-01  1.1209129375831D+00
    95  9.4000000000000D-01  6.4241897770668D-01  1.1448834711167D+00
    96  9.5000000000000D-01  6.2032934912187D-01  1.1673024693226D+00
    97  9.6000000000000D-01  5.9840540332168D-01  1.1881395017371D+00
    98  9.7000000000000D-01  5.7667175310302D-01  1.2073682164809D+00
    99  9.8000000000000D-01  5.5515210976683D-01  1.2249663945745D+00
   100  9.9000000000000D-01  5.3386925525611D-01  1.2409159906590D+00
   101  1.0000000000000D+00  5.1284501668545D-01  1.2552031599386D+00
   102  1.0100000000000D+00  4.9210024329659D-01  1.2678182712251D+00
   103  1.0200000000000D+00  4.7165478586879D-01  1.2787559060151D+00
   104  1.0300000000000D+00  4.5152747860594D-01  1.2880148435908D+00
   105  1.0400000000000D+00  4.3173612351620D-01  1.2955980321925D+00
   106  1.0500000000000D+00  4.1229747729292D-01  1.3015125463685D+00
   107  1.0600000000000D+00  3.9322724070005D-01  1.3057695306642D+00
   108  1.0700000000000D+00  3.7454005045748D-01  1.3083841298703D+00
   109  1.0800000000000D+00  3.5624947361643D-01  1.3093754061073D+00
   110  1.0900000000000D+00  3.3836800440784D-01  1.3087662430755D+00
   111  1.1000000000000D+00  3.2090706354042D-01  1.3065832378589D+00
   112  1.1100000000000D+00  3.0387699991973D-01  1.3028565807127D+00
   113  1.1200000000000D+00  2.8728709475201D-01  1.2976199233286D+00
   114  1.1300000000000D+00  2.7114556799155D-01  1.2909102361094D+00
   115  1.1400000000000D+00  2.5545958708385D-01  1.2827676550381D+00
   116  1.1500000000000D+00  2.4023527795216D-01  1.2732353187588D+00
   117  1.1600000000000D+00  2.2547773816807D-01  1.2623591965414D+00
   118  1.1700000000000D+00  2.1119105224261D-01  1.2501879078295D+00
   119  1.1800000000000D+00  1.9737830896799D-01  1.2367725341115D+00
   120  1.1900000000000D+00  1.8404162073747D-01  1.2221664238772D+00
   121  1.2000000000000D+00  1.7118214476345D-01  1.2064249914615D+00
   122  1.2100000000000D+00  1.5880010611101D-01  1.1896055105946D+00
   123  1.2200000000000D+00  1.4689482246025D-01  1.1717669034949D+00
   124  1.2300000000000D+00  1.3546473050638D-01  1.1529695263658D+00
   125  1.2400000000000D+00  1.2450741390254D-01  1.1332749521640D+00
   126  1.2500000000000D+00  1.1401963264800D-01  1.1127457515181D+00
   127  1.2600000000000D+00  1.0399735382146D-01  1.0914452726801D+00
   128  1.2700000000000D+00  9.4435783555374D-02  1.0694374213963D+00
   129  1.2800000000000D+00  8.5329400146029D-02  1.0467864415722D+00
   130  1.2900000000000D+00  7.6671988192494D-02  1.0235566976157D+00
   131  1.3000000000000D+00  6.8456673654192D-02  9.9981245931287D-01
   132  1.3100000000000D+00  6.0675959717502D-02  9.7561769008369D-01
   133  1.3200000000000D+00  5.3321763359810D-02  9.5103583946194D-01
   134  1.3300000000000D+00  4.6385452498813D-02  9.2612964058754D-01
   135  1.3400000000000D+00  3.9857883615359D-02  9.0096091350466D-01
   136  1.3500000000000D+00  3.3729439736927D-02  8.7559037503095D-01
   137  1.3600000000000D+00  2.7990068671118D-02  8.5007745588447D-01
   138  1.3700000000000D+00  2.2629321377140D-02  8.2448012579949D-01
   139  1.3800000000000D+00  1.7636390365642D-02  7.9885472725650D-01
   140  1.3900000000000D+00  1.3000148020019D-02  7.7325581841398D-01
   141  1.4000000000000D+00  8.7091847290039D-03  7.4773602587672D-01
   142  1.4100000000000D+00  4.7518467301343D-03  7.2234590773413D-01
   143  1.4200000000000D+00  1.1162735586025D-03  6.9713382741240D-01
   144  1.4300000000000D+00 -2.2095649981198D-03  6.7214583875191D-01
   145  1.4400000000000D+00 -5.2378325323091D-03  6.4742558262902D-01
   146  1.4500000000000D+00 -7.9807903368889D-03  6.2301419557256D-01
   147  1.4600000000000D+00 -1.0450762494556D-02  5.9895023049273D-01
   148  1.4700000000000D+00 -1.2660101831446D-02  5.7526958988688D-01
   149  1.4800000000000D+00 -1.4621156812067D-02  5.5200547160273D-01
   150  1.4900000000000D+00 -1.6346239453384D-02  5.2918832728382D-01
   151  1.5000000000000D+00 -1.7847594340550D-02  5.0684583364461D-01
   152  1.5100000000000D+00 -1.9137368797227D-02  4.8500287641273D-01
   153  1.5200000000000D+00 -2.0227584298737D-02  4.6368154714088D-01
   154  1.5300000000000D+00 -2.1130109161951D-02  4.4290115253056D-01
   155  1.5400000000000D+00 -2.1856632591460D-02  4.2267823637207D-01
   156  1.5500000000000D+00 -2.2418640112758D-02  4.0302661372232D-01
   157  1.5600000000000D+00 -2.2827390449440D-02  3.8395741720837D-01
   158  1.5700000000000D+00 -2.3093893880069D-02  3.6547915512649D-01
   159  1.5800000000000D+00 -2.3228892104151D-02  3.4759778099751D-01
   160  1.5900000000000D+00 -2.3242839659941D-02  3.3031677429667D-01
   161  1.6000000000000D+00 -2.3145886894731D-02  3.1363723182217D-01
   162  1.6100000000000D+00 -2.2947864537452D-02  2.9755796944867D-01
   163  1.6200000000000D+00 -2.2658269846025D-02  2.8207563357826D-01
   164  1.6300000000000D+00 -2.2286254385184D-02  2.6718482203498D-01
   165  1.6400000000000D+00 -2.1840613381058D-02  2.5287821361661D-01
   166  1.6500000000000D+00 -2.1329776711005D-02  2.3914670601492D-01
   167  1.6600000000000D+00 -2.0761801454818D-02  2.2597956128273D-01
   168  1.6700000000000D+00 -2.0144366060851D-02  2.1336455848140D-01
   169  1.6800000000000D+00 -1.9484766041406D-02  2.0128815271146D-01
   170  1.6900000000000D+00 -1.8789911241025D-02  1.8973564006252D-01
   171  1.7000000000000D+00 -1.8066324582874D-02  1.7869132773908D-01
   172  1.7100000000000D+00 -1.7320142327808D-02  1.6813870880345D-01
   173  1.7200000000000D+00 -1.6557115741282D-02  1.5806064086736D-01
   174  1.7300000000000D+00 -1.5782614196127D-02  1.4843952807766D-01
   175  1.7400000000000D+00 -1.5001629595509D-02  1.3925750583248D-01
   176  1.7500000000000D+00 -1.4218782138690D-02  1.3049662746737D-01
   177  1.7600000000000D+00 -1.3438327306124D-02  1.2213905248245D-01
   178  1.7700000000000D+00 -1.2664164076162D-02  1.1416723544714D-01
   179  1.7800000000000D+00 -1.1899844251646D-02  1.0656411528649D-01
   180  1.7900000000000D+00 -1.1148582889773D-02  9.9313304026794D-02
   181  1.8000000000000D+00 -1.0413269724466D-02  9.2399274792917D-02
   182  1.8100000000000D+00 -9.6964816638689D-03  8.5807554245554D-02
   183  1.8200000000000D+00 -9.0004955958630D-03  7.9524883028101D-02
   184  1.8300000000000D+00 -8.3273035646569D-03  7.3539456869178D-02
   185  1.8400000000000D+00 -7.6786256026961D-03  6.7841002274316D-02
   186  1.8500000000000D+00 -7.0559245303721D-03  6.2420915017123D-02
   187  1.8600000000000D+00 -6.4604283909462D-03  5.7272772416429D-02
   188  1.8700000000000D+00 -5.8931485307719D-03  5.2392590173148D-02
   189  1.8800000000000D+00 -5.3548707601282D-03  4.7777590960451D-02
   190  1.8900000000000D+00 -4.8461571559992D-03  4.3425507478737D-02
   191  1.9000000000000D+00 -4.3673479888687D-03  3.9333974698048D-02
   192  1.9100000000000D+00 -3.9185506529835D-03  3.5499178017010D-02
   193  1.9200000000000D+00 -3.4996596011926D-03  3.1916168444878D-02
   194  1.9300000000000D+00 -3.1103773901232D-03  2.8579243883402D-02
   195  1.9400000000000D+00 -2.7502305117376D-03  2.5482028372124D-02
   196  1.9500000000000D+00 -2.4185829901639D-03  2.2617414499051D-02
   197  1.9600000000000D+00 -2.1146540018295D-03  1.9977729478768D-02
   198  1.9700000000000D+00 -1.8375332145146D-03  1.7554776901405D-02
   199  1.9800000000000D+00 -1.5861968160118D-03  1.5339919201178D-02
   200  1.9900000000000D+00 -1.3595231145271D-03  1.3324148028515D-02
   201  2.0000000000000D+00 -1.1563078962101D-03  1.1498151355262D-02
   202  2.0100000000000D+00 -9.7527940756895D-04  9.8523770917355D-03
   203  2.0200000000000D+00 -8.1511291841743D-04  8.3770932223490D-03
   204  2.0300000000000D+00 -6.7444485367778D-04  7.0624445319620D-03
   205  2.0400000000000D+00 -5.5188632815659D-04  5.8985057122064D-03
   206  2.0500000000000D+00 -4.4603618349132D-04  4.8753310657067D-03
   207  2.0600000000000D+00 -3.5549332449187D-04  3.9830005972258D-03
   208  2.0700000000000D+00 -2.7886841680900D-04  3.2116626133800D-03
   209  2.0800000000000D+00 -2.1479488266155D-04  2.5515728078538D-03
   210  2.0900000000000D+00 -1.6193907175329D-04  1.9931297539164D-03
   211  2.1000000000000D+00 -1.1900974808660D-04  1.5269069638033D-03
   212  2.1100000000000D+00 -8.4766643870544D-05  1.1436813553715D-03
   213  2.1200000000000D+00 -5.8028232569453D-05  8.3445826623283D-04
   214  2.1300000000000D+00 -3.7678632048661D-05  5.9049298658625D-04
   215  2.1400000000000D+00 -2.2666348239922D-05  4.0332701207801D-04
   216  2.1500000000000D+00 -1.2037970864778D-05  2.6473030743066D-04
   217  2.1600000000000D+00 -4.9281542481190D-06  1.6665847321567D-04
   218  2.1700000000000D+00 -5.2815909525544D-07  1.0150424621174D-04
   219  2.1800000000000D+00  1.9893299463674D-06  6.2739662010733D-05
   220  2.1900000000000D+00  3.3571152416387D-06  4.4538639081571D-05
   221  2.2000000000000D+00  3.8173753737768D-06  3.7362202374072D-05
   222  2.2100000000000D+00  3.4103126243913D-06  3.1696605081762D-05
   223  2.2200000000000D+00  2.1050154070082D-06  1.9660503729104D-05
   224  2.2300000000000D+00  6.7137285954484D-07  6.4436981372574D-06
   225  2.2400000000000D+00 -2.2912410916998D-07 -2.0416330726864D-06
   226  2.2500000000000D+00 -3.4971701607392D-07 -3.1267173390111D-06
   227  2.2600000000000D+00 -8.8640247394271D-08 -7.9641158830741D-07
   228  2.2700000000000D+00  7.1271104807190D-08  5.9076417149021D-07
   229  2.2800000000000D+00  7.3793758367471D-08  6.0804365780718D-07
   230  2.2900000000000D+00 -2.7565888927024D-10 -2.5658452955677D-09
   231  2.3000000000000D+00 -9.3835238707136D-09 -8.7342260731211D-08
   232  2.3100000000000D+00 -6.9473484448023D-09 -6.4666230684437D-08
   233  2.3200000000000D+00  0.0000000000000D+00  0.0000000000000D+00
   234  2.3300000000000D+00  0.0000000000000D+00  0.0000000000000D+00
   235  2.3400000000000D+00  0.0000000000000D+00  0.0000000000000D+00
   236  2.3500000000000D+00  0.0000000000000D+00  0.0000000000000D+00
   237  2.3600000000000D+00  0.0000000000000D+00  0.0000000000000D+00
   238  2.3700000000000D+00  0.0000000000000D+00  0.0000000000000D+00
   239  2.3800000000000D+00  0.0000000000000D+00  0.0000000000000D+00
   240  2.3900000000000D+00  0.0000000000000D+00  0.0000000000000D+00
   241  2.4000000000000D+00  0.0000000000000D+00  0.0000000000000D+00
   242  2.4100000000000D+00  0.0000000000000D+00  0.0000000000000D+00
   243  2.4200000000000D+00  0.0000000000000D+00  0.0000000000000D+00
   244  2.4300000000000D+00  0.0000000000000D+00  0.0000000000000D+00
   245  2.4400000000000D+00  0.0000000000000D+00  0.0000000000000D+00
   246  2.4500000000000D+00  0.0000000000000D+00  0.0000000000000D+00
   247  2.4600000000000D+00  0.0000000000000D+00  0.0000000000000D+00
   248  2.4700000000000D+00  0.0000000000000D+00  0.0000000000000D+00
   249  2.4800000000000D+00  0.0000000000000D+00  0.0000000000000D+00
   250  2.4900000000000D+00  0.0000000000000D+00  0.0000000000000D+00
   251  2.5000000000000D+00  0.0000000000000D+00  0.0000000000000D+00
   252  2.5100000000000D+00  0.0000000000000D+00  0.0000000000000D+00
   253  2.5200000000000D+00  0.0000000000000D+00  0.0000000000000D+00
   254  2.5300000000000D+00  0.0000000000000D+00  0.0000000000000D+00
   255  2.5400000000000D+00  0.0000000000000D+00  0.0000000000000D+00
   256  2.5500000000000D+00  0.0000000000000D+00  0.0000000000000D+00
   257  2.5600000000000D+00  0.0000000000000D+00  0.0000000000000D+00
   258  2.5700000000000D+00  0.0000000000000D+00  0.0000000000000D+00
   259  2.5800000000000D+00  0.0000000000000D+00  0.0000000000000D+00
   260  2.5900000000000D+00  0.0000000000000D+00  0.0000000000000D+00
   261  2.6000000000000D+00  0.0000000000000D+00  0.0000000000000D+00
   262  2.6100000000000D+00  0.0000000000000D+00  0.0000000000000D+00
   263  2.6200000000000D+00  0.0000000000000D+00  0.0000000000000D+00
   264  2.6300000000000D+00  0.0000000000000D+00  0.0000000000000D+00
   265  2.6400000000000D+00  0.0000000000000D+00  0.0000000000000D+00
   266  2.6500000000000D+00  0.0000000000000D+00  0.0000000000000D+00
   267  2.6600000000000D+00  0.0000000000000D+00  0.0000000000000D+00
   268  2.6700000000000D+00  0.0000000000000D+00  0.0000000000000D+00
   269  2.6800000000000D+00  0.0000000000000D+00  0.0000000000000D+00
   270  2.6900000000000D+00  0.0000000000000D+00  0.0000000000000D+00
   271  2.7000000000000D+00  0.0000000000000D+00  0.0000000000000D+00
   272  2.7100000000000D+00  0.0000000000000D+00  0.0000000000000D+00
   273  2.7200000000000D+00  0.0000000000000D+00  0.0000000000000D+00
   274  2.7300000000000D+00  0.0000000000000D+00  0.0000000000000D+00
   275  2.7400000000000D+00  0.0000000000000D+00  0.0000000000000D+00
   276  2.7500000000000D+00  0.0000000000000D+00  0.0000000000000D+00
   277  2.7600000000000D+00  0.0000000000000D+00  0.0000000000000D+00
   278  2.7700000000000D+00  0.0000000000000D+00  0.0000000000000D+00
   279  2.7800000000000D+00  0.0000000000000D+00  0.0000000000000D+00
   280  2.7900000000000D+00  0.0000000000000D+00  0.0000000000000D+00
   281  2.8000000000000D+00  0.0000000000000D+00  0.0000000000000D+00
   282  2.8100000000000D+00  0.0000000000000D+00  0.0000000000000D+00
   283  2.8200000000000D+00  0.0000000000000D+00  0.0000000000000D+00
   284  2.8300000000000D+00  0.0000000000000D+00  0.0000000000000D+00
   285  2.8400000000000D+00  0.0000000000000D+00  0.0000000000000D+00
   286  2.8500000000000D+00  0.0000000000000D+00  0.0000000000000D+00
   287  2.8600000000000D+00  0.0000000000000D+00  0.0000000000000D+00
   288  2.8700000000000D+00  0.0000000000000D+00  0.0000000000000D+00
   289  2.8800000000000D+00  0.0000000000000D+00  0.0000000000000D+00
   290  2.8900000000000D+00  0.0000000000000D+00  0.0000000000000D+00
   291  2.9000000000000D+00  0.0000000000000D+00  0.0000000000000D+00
   292  2.9100000000000D+00  0.0000000000000D+00  0.0000000000000D+00
   293  2.9200000000000D+00  0.0000000000000D+00  0.0000000000000D+00
   294  2.9300000000000D+00  0.0000000000000D+00  0.0000000000000D+00
   295  2.9400000000000D+00  0.0000000000000D+00  0.0000000000000D+00
   296  2.9500000000000D+00  0.0000000000000D+00  0.0000000000000D+00
   297  2.9600000000000D+00  0.0000000000000D+00  0.0000000000000D+00
   298  2.9700000000000D+00  0.0000000000000D+00  0.0000000000000D+00
   299  2.9800000000000D+00  0.0000000000000D+00  0.0000000000000D+00
   300  2.9900000000000D+00  0.0000000000000D+00  0.0000000000000D+00
   301  3.0000000000000D+00  0.0000000000000D+00  0.0000000000000D+00
   302  3.0100000000000D+00  0.0000000000000D+00  0.0000000000000D+00
   303  3.0200000000000D+00  0.0000000000000D+00  0.0000000000000D+00
   304  3.0300000000000D+00  0.0000000000000D+00  0.0000000000000D+00
   305  3.0400000000000D+00  0.0000000000000D+00  0.0000000000000D+00
   306  3.0500000000000D+00  0.0000000000000D+00  0.0000000000000D+00
   307  3.0600000000000D+00  0.0000000000000D+00  0.0000000000000D+00
   308  3.0700000000000D+00  0.0000000000000D+00  0.0000000000000D+00
   309  3.0800000000000D+00  0.0000000000000D+00  0.0000000000000D+00
   310  3.0900000000000D+00  0.0000000000000D+00  0.0000000000000D+00
   311  3.1000000000000D+00  0.0000000000000D+00  0.0000000000000D+00
   312  3.1100000000000D+00  0.0000000000000D+00  0.0000000000000D+00
   313  3.1200000000000D+00  0.0000000000000D+00  0.0000000000000D+00
   314  3.1300000000000D+00  0.0000000000000D+00  0.0000000000000D+00
   315  3.1400000000000D+00  0.0000000000000D+00  0.0000000000000D+00
   316  3.1500000000000D+00  0.0000000000000D+00  0.0000000000000D+00
   317  3.1600000000000D+00  0.0000000000000D+00  0.0000000000000D+00
   318  3.1700000000000D+00  0.0000000000000D+00  0.0000000000000D+00
   319  3.1800000000000D+00  0.0000000000000D+00  0.0000000000000D+00
   320  3.1900000000000D+00  0.0000000000000D+00  0.0000000000000D+00
   321  3.2000000000000D+00  0.0000000000000D+00  0.0000000000000D+00
   322  3.2100000000000D+00  0.0000000000000D+00  0.0000000000000D+00
   323  3.2200000000000D+00  0.0000000000000D+00  0.0000000000000D+00
   324  3.2300000000000D+00  0.0000000000000D+00  0.0000000000000D+00
   325  3.2400000000000D+00  0.0000000000000D+00  0.0000000000000D+00
   326  3.2500000000000D+00  0.0000000000000D+00  0.0000000000000D+00
   327  3.2600000000000D+00  0.0000000000000D+00  0.0000000000000D+00
   328  3.2700000000000D+00  0.0000000000000D+00  0.0000000000000D+00
   329  3.2800000000000D+00  0.0000000000000D+00  0.0000000000000D+00
   330  3.2900000000000D+00  0.0000000000000D+00  0.0000000000000D+00
   331  3.3000000000000D+00  0.0000000000000D+00  0.0000000000000D+00
   332  3.3100000000000D+00  0.0000000000000D+00  0.0000000000000D+00
   333  3.3200000000000D+00  0.0000000000000D+00  0.0000000000000D+00
   334  3.3300000000000D+00  0.0000000000000D+00  0.0000000000000D+00
   335  3.3400000000000D+00  0.0000000000000D+00  0.0000000000000D+00
   336  3.3500000000000D+00  0.0000000000000D+00  0.0000000000000D+00
   337  3.3600000000000D+00  0.0000000000000D+00  0.0000000000000D+00
   338  3.3700000000000D+00  0.0000000000000D+00  0.0000000000000D+00
   339  3.3800000000000D+00  0.0000000000000D+00  0.0000000000000D+00
   340  3.3900000000000D+00  0.0000000000000D+00  0.0000000000000D+00
   341  3.4000000000000D+00  0.0000000000000D+00  0.0000000000000D+00
   342  3.4100000000000D+00  0.0000000000000D+00  0.0000000000000D+00
   343  3.4200000000000D+00  0.0000000000000D+00  0.0000000000000D+00
   344  3.4300000000000D+00  0.0000000000000D+00  0.0000000000000D+00
   345  3.4400000000000D+00  0.0000000000000D+00  0.0000000000000D+00
   346  3.4500000000000D+00  0.0000000000000D+00  0.0000000000000D+00
   347  3.4600000000000D+00  0.0000000000000D+00  0.0000000000000D+00
   348  3.4700000000000D+00  0.0000000000000D+00  0.0000000000000D+00
   349  3.4800000000000D+00  0.0000000000000D+00  0.0000000000000D+00
   350  3.4900000000000D+00  0.0000000000000D+00  0.0000000000000D+00
   351  3.5000000000000D+00  0.0000000000000D+00  0.0000000000000D+00
   352  3.5100000000000D+00  0.0000000000000D+00  0.0000000000000D+00
   353  3.5200000000000D+00  0.0000000000000D+00  0.0000000000000D+00
   354  3.5300000000000D+00  0.0000000000000D+00  0.0000000000000D+00
   355  3.5400000000000D+00  0.0000000000000D+00  0.0000000000000D+00
   356  3.5500000000000D+00  0.0000000000000D+00  0.0000000000000D+00
   357  3.5600000000000D+00  0.0000000000000D+00  0.0000000000000D+00
   358  3.5700000000000D+00  0.0000000000000D+00  0.0000000000000D+00
   359  3.5800000000000D+00  0.0000000000000D+00  0.0000000000000D+00
   360  3.5900000000000D+00  0.0000000000000D+00  0.0000000000000D+00
   361  3.6000000000000D+00  0.0000000000000D+00  0.0000000000000D+00
   362  3.6100000000000D+00  0.0000000000000D+00  0.0000000000000D+00
   363  3.6200000000000D+00  0.0000000000000D+00  0.0000000000000D+00
   364  3.6300000000000D+00  0.0000000000000D+00  0.0000000000000D+00
   365  3.6400000000000D+00  0.0000000000000D+00  0.0000000000000D+00
   366  3.6500000000000D+00  0.0000000000000D+00  0.0000000000000D+00
   367  3.6600000000000D+00  0.0000000000000D+00  0.0000000000000D+00
   368  3.6700000000000D+00  0.0000000000000D+00  0.0000000000000D+00
   369  3.6800000000000D+00  0.0000000000000D+00  0.0000000000000D+00
   370  3.6900000000000D+00  0.0000000000000D+00  0.0000000000000D+00
   371  3.7000000000000D+00  0.0000000000000D+00  0.0000000000000D+00
   372  3.7100000000000D+00  0.0000000000000D+00  0.0000000000000D+00
   373  3.7200000000000D+00  0.0000000000000D+00  0.0000000000000D+00
   374  3.7300000000000D+00  0.0000000000000D+00  0.0000000000000D+00
   375  3.7400000000000D+00  0.0000000000000D+00  0.0000000000000D+00
   376  3.7500000000000D+00  0.0000000000000D+00  0.0000000000000D+00
   377  3.7600000000000D+00  0.0000000000000D+00  0.0000000000000D+00
   378  3.7700000000000D+00  0.0000000000000D+00  0.0000000000000D+00
   379  3.7800000000000D+00  0.0000000000000D+00  0.0000000000000D+00
   380  3.7900000000000D+00  0.0000000000000D+00  0.0000000000000D+00
   381  3.8000000000000D+00  0.0000000000000D+00  0.0000000000000D+00
   382  3.8100000000000D+00  0.0000000000000D+00  0.0000000000000D+00
   383  3.8200000000000D+00  0.0000000000000D+00  0.0000000000000D+00
   384  3.8300000000000D+00  0.0000000000000D+00  0.0000000000000D+00
   385  3.8400000000000D+00  0.0000000000000D+00  0.0000000000000D+00
   386  3.8500000000000D+00  0.0000000000000D+00  0.0000000000000D+00
   387  3.8600000000000D+00  0.0000000000000D+00  0.0000000000000D+00
   388  3.8700000000000D+00  0.0000000000000D+00  0.0000000000000D+00
   389  3.8800000000000D+00  0.0000000000000D+00  0.0000000000000D+00
   390  3.8900000000000D+00  0.0000000000000D+00  0.0000000000000D+00
   391  3.9000000000000D+00  0.0000000000000D+00  0.0000000000000D+00
   392  3.9100000000000D+00  0.0000000000000D+00  0.0000000000000D+00
   393  3.9200000000000D+00  0.0000000000000D+00  0.0000000000000D+00
   394  3.9300000000000D+00  0.0000000000000D+00  0.0000000000000D+00
   395  3.9400000000000D+00  0.0000000000000D+00  0.0000000000000D+00
   396  3.9500000000000D+00  0.0000000000000D+00  0.0000000000000D+00
   397  3.9600000000000D+00  0.0000000000000D+00  0.0000000000000D+00
   398  3.9700000000000D+00  0.0000000000000D+00  0.0000000000000D+00
   399  3.9800000000000D+00  0.0000000000000D+00  0.0000000000000D+00
   400  3.9900000000000D+00  0.0000000000000D+00  0.0000000000000D+00
   401  4.0000000000000D+00  0.0000000000000D+00  0.0000000000000D+00
   402  4.0100000000000D+00  0.0000000000000D+00  0.0000000000000D+00
   403  4.0200000000000D+00  0.0000000000000D+00  0.0000000000000D+00
   404  4.0300000000000D+00  0.0000000000000D+00  0.0000000000000D+00
   405  4.0400000000000D+00  0.0000000000000D+00  0.0000000000000D+00
   406  4.0500000000000D+00  0.0000000000000D+00  0.0000000000000D+00
   407  4.0600000000000D+00  0.0000000000000D+00  0.0000000000000D+00
   408  4.0700000000000D+00  0.0000000000000D+00  0.0000000000000D+00
   409  4.0800000000000D+00  0.0000000000000D+00  0.0000000000000D+00
   410  4.0900000000000D+00  0.0000000000000D+00  0.0000000000000D+00
   411  4.1000000000000D+00  0.0000000000000D+00  0.0000000000000D+00
   412  4.1100000000000D+00  0.0000000000000D+00  0.0000000000000D+00
   413  4.1200000000000D+00  0.0000000000000D+00  0.0000000000000D+00
   414  4.1300000000000D+00  0.0000000000000D+00  0.0000000000000D+00
   415  4.1400000000000D+00  0.0000000000000D+00  0.0000000000000D+00
   416  4.1500000000000D+00  0.0000000000000D+00  0.0000000000000D+00
   417  4.1600000000000D+00  0.0000000000000D+00  0.0000000000000D+00
   418  4.1700000000000D+00  0.0000000000000D+00  0.0000000000000D+00
   419  4.1800000000000D+00  0.0000000000000D+00  0.0000000000000D+00
   420  4.1900000000000D+00  0.0000000000000D+00  0.0000000000000D+00
   421  4.2000000000000D+00  0.0000000000000D+00  0.0000000000000D+00
   422  4.2100000000000D+00  0.0000000000000D+00  0.0000000000000D+00