O     ONCVPSP-3.3.1  r_core=   1.29195   1.47310
      8.0000      6.0000      210904    zatom,zion,pspd
     8      11   1     4   600     0    pspcod,pspxc,lmax,lloc,mmax,r2well
  5.99000000  0.00000000  0.00000000    rchrg fchrg qchrg
     2     2     0     0     0    nproj
     1     1           extension_switch
   0                         9.8451707808346D+00  1.4031386553443D+00
     1  0.0000000000000D+00  2.8613560409951D-09 -9.9471681030971D-09
     2  1.0000000000000D-02  8.9551173900705D-02 -5.9587381896874D-03
     3  2.0000000000000D-02  1.7895935488869D-01 -1.2168138267738D-02
     4  3.0000000000000D-02  2.6807982850893D-01 -1.8870986189034D-02
     5  4.0000000000000D-02  3.5676448025546D-01 -2.6294467503247D-02
     6  5.0000000000000D-02  4.4486020238572D-01 -3.4642743215375D-02
     7  6.0000000000000D-02  5.3220742686922D-01 -4.4089969708861D-02
     8  7.0000000000000D-02  6.1863882309571D-01 -5.4773898855964D-02
     9  8.0000000000000D-02  7.0397819610610D-01 -6.6790184492906D-02
    10  9.0000000000000D-02  7.8803961761954D-01 -8.0187509311045D-02
    11  1.0000000000000D-01  8.7062681806615D-01 -9.4963632107422D-02
    12  1.1000000000000D-01  9.5153286326282D-01 -1.1106243947954D-01
    13  1.2000000000000D-01  1.0305401343620D+00 -1.2837206869971D-01
    14  1.3000000000000D-01  1.1074206243413D+00 -1.4672414994813D-01
    15  1.4000000000000D-01  1.1819365586690D+00 -1.6589419662688D-01
    16  1.5000000000000D-01  1.2538413419741D+00 -1.8560315243942D-01
    17  1.6000000000000D-01  1.3228808266516D+00 -2.0552008363410D-01
    18  1.7000000000000D-01  1.3887948934560D+00 -2.2526598461192D-01
    19  1.8000000000000D-01  1.4513193283594D+00 -2.4441864532622D-01
    20  1.9000000000000D-01  1.5101879743793D+00 -2.6251850988423D-01
    21  2.0000000000000D-01  1.5651351318026D+00 -2.7907543782129D-01
    22  2.1000000000000D-01  1.6158981753385D+00 -2.9357626295879D-01
    23  2.2000000000000D-01  1.6622203522997D+00 -3.0549302986241D-01
    24  2.3000000000000D-01  1.7038537220213D+00 -3.1429177494423D-01
    25  2.4000000000000D-01  1.7405621934392D+00 -3.1944170842772D-01
    26  2.5000000000000D-01  1.7721246151323D+00 -3.2042464491249D-01
    27  2.6000000000000D-01  1.7983378702206D+00 -3.1674452429042D-01
    28  2.7000000000000D-01  1.8190199273534D+00 -3.0793686139234D-01
    29  2.8000000000000D-01  1.8340127986340D+00 -2.9357796205775D-01
    30  2.9000000000000D-01  1.8431853557251D+00 -2.7329374534639D-01
    31  3.0000000000000D-01  1.8464359565660D+00 -2.4676801633660D-01
    32  3.1000000000000D-01  1.8436948370881D+00 -2.1375004131648D-01
    33  3.2000000000000D-01  1.8349262250241D+00 -1.7406128706903D-01
    34  3.3000000000000D-01  1.8201301363223D+00 -1.2760119822946D-01
    35  3.4000000000000D-01  1.7993438187578D+00 -7.4351901166719D-02
    36  3.5000000000000D-01  1.7726428120163D+00 -1.4381739281661D-02
    37  3.6000000000000D-01  1.7401415987404D+00  5.2152437235547D-02
    38  3.7000000000000D-01  1.7019938266992D+00  1.2500428458377D-01
    39  3.8000000000000D-01  1.6583920882771D+00  2.0383831819462D-01
    40  3.9000000000000D-01  1.6095672497919D+00  2.8823162054925D-01
    41  4.0000000000000D-01  1.5557873296363D+00  3.7767689744247D-01
    42  4.1000000000000D-01  1.4973559308007D+00  4.7158685429093D-01
    43  4.2000000000000D-01  1.4346102398691D+00  5.6929984252270D-01
    44  4.3000000000000D-01  1.3679186109803D+00  6.7008670520743D-01
    45  4.4000000000000D-01  1.2976777594136D+00  7.7315873124163D-01
    46  4.5000000000000D-01  1.2243095952978D+00  8.7767660893075D-01
    47  4.6000000000000D-01  1.1482577333465D+00  9.8276025302294D-01
    48  4.7000000000000D-01  1.0699837194266D+00  1.0874993644406D+00
    49  4.8000000000000D-01  9.8996301906854D-01  1.1909645693784D+00
    50  4.9000000000000D-01  9.0868081667418D-01  1.2922189743162D+00
    51  5.0000000000000D-01  8.2662767710355D-01  1.3903299660027D+00
    52  5.1000000000000D-01  7.4429512347793D-01  1.4843810807506D+00
    53  5.2000000000000D-01  6.6217118639445D-01  1.5734837655128D+00
    54  5.3000000000000D-01  5.8073598027711D-01  1.6567888542487D+00
    55  5.4000000000000D-01  5.0045736228958D-01  1.7334975870001D+00
    56  5.5000000000000D-01  4.2178672810712D-01  1.8028720058425D+00
    57  5.6000000000000D-01  3.4515499690880D-01  1.8642445713364D+00
    58  5.7000000000000D-01  2.7096883524458D-01  1.9170268551058D+00
    59  5.8000000000000D-01  1.9960716598389D-01  1.9607171785673D+00
    60  5.9000000000000D-01  1.3141800445294D-01  1.9949070842703D+00
    61  6.0000000000000D-01  6.6715659136010D-02  2.0192865446743D+00
    62  6.1000000000000D-01  5.7783290927848D-03  2.0336478329522D+00
    63  6.2000000000000D-01 -5.1153875445977D-02  2.0378880014444D+00
    64  6.3000000000000D-01 -1.0388046886206D-01  2.0320099351897D+00
    65  6.4000000000000D-01 -1.5224166811817D-01  2.0161219701349D+00
    66  6.5000000000000D-01 -1.9611900514422D-01  1.9904360879867D+00
    67  6.6000000000000D-01 -2.3543547228967D-01  1.9552647215275D+00
    68  6.7000000000000D-01 -2.7015520585473D-01  1.9110162254215D+00
    69  6.8000000000000D-01 -3.0028271891217D-01  1.8581890876856D+00
    70  6.9000000000000D-01 -3.2586170053322D-01  1.7973649756269D+00
    71  7.0000000000000D-01 -3.4697340405607D-01  1.7292007269024D+00
    72  7.1000000000000D-01 -3.6373465213326D-01  1.6544194112450D+00
    73  7.2000000000000D-01 -3.7629549081726D-01  1.5738006008644D+00
    74  7.3000000000000D-01 -3.8483652887332D-01  1.4881699975203D+00
    75  7.4000000000000D-01 -3.8956600177156D-01  1.3983885715529D+00
    76  7.5000000000000D-01 -3.9071660234844D-01  1.3053413726238D+00
    77  7.6000000000000D-01 -3.8854212193805D-01  1.2099261735307D+00
    78  7.7000000000000D-01 -3.8331394679702D-01  1.1130421071591D+00
    79  7.8000000000000D-01 -3.7531745490988D-01  1.0155784525006D+00
    80  7.9000000000000D-01 -3.6484835775688D-01  9.1840371877850D-01
    81  8.0000000000000D-01 -3.5220903037772D-01  8.2235516722072D-01
    82  8.1000000000000D-01 -3.3770487110830D-01  7.2822889809817D-01
    83  8.2000000000000D-01 -3.2164072974910D-01  6.3677061654764D-01
    84  8.3000000000000D-01 -3.0431743970150D-01  5.4866717468525D-01
    85  8.4000000000000D-01 -2.8602848585204D-01  4.6453896990999D-01
    86  8.5000000000000D-01 -2.6705683576883D-01  3.8493326042711D-01
    87  8.6000000000000D-01 -2.4767195718753D-01  3.1031843925480D-01
    88  8.7000000000000D-01 -2.2812703989292D-01  2.4107928768481D-01
    89  8.8000000000000D-01 -2.0865643504298D-01  1.7751320873352D-01
    90  8.9000000000000D-01 -1.8947331915505D-01  1.1982741782044D-01
    91  9.0000000000000D-01 -1.7076758491207D-01  6.8137050125891D-02
    92  9.1000000000000D-01 -1.5270400418136D-01  2.2464336847856D-02
    93  9.2000000000000D-01 -1.3542040407896D-01 -1.7262360750215D-02
    94  9.3000000000000D-01 -1.1902833930832D-01 -5.1198371851414D-02
    95  9.4000000000000D-01 -1.0361613197309D-01 -7.9563357239559D-02
    96  9.5000000000000D-01 -8.9250964614694D-02 -1.0262830018793D-01
    97  9.6000000000000D-01 -7.5979639695061D-02 -1.2070961058566D-01
    98  9.7000000000000D-01 -6.3829782636979D-02 -1.3416169747407D-01
    99  9.8000000000000D-01 -5.2811189537385D-02 -1.4336947563671D-01
   100  9.9000000000000D-01 -4.2917329746008D-02 -1.4874072894932D-01
   101  1.0000000000000D+00 -3.4126971365296D-02 -1.5069846574480D-01
   102  1.0100000000000D+00 -2.6405895357033D-02 -1.4967340558979D-01
   103  1.0200000000000D+00 -1.9708665191929D-02 -1.4609672634105D-01
   104  1.0300000000000D+00 -1.3980419878574D-02 -1.4039319184204D-01
   105  1.0400000000000D+00 -9.1586596529613D-03 -1.3297477016921D-01
   106  1.0500000000000D+00 -5.1749957149384D-03 -1.2423483921684D-01
   107  1.0600000000000D+00 -1.9568374728244D-03 -1.1454306421881D-01
   108  1.0700000000000D+00  5.7100601382855D-04 -1.0424101427302D-01
   109  1.0800000000000D+00  2.4848308521228D-03 -9.3638570173473D-02
   110  1.0900000000000D+00  3.8606663847368D-03 -8.3011158406228D-02
   111  1.1000000000000D+00  4.7730397495096D-03 -7.2597828041821D-02
   112  1.1100000000000D+00  5.2938871101111D-03 -6.2600172642961D-02
   113  1.1200000000000D+00  5.4916172317455D-03 -5.3182078540624D-02
   114  1.1300000000000D+00  5.4303300797761D-03 -4.4470267411031D-02
   115  1.1400000000000D+00  5.1691891163999D-03 -3.6555583544425D-02
   116  1.1500000000000D+00  4.7619434847362D-03 -2.9494965429729D-02
   117  1.1600000000000D+00  4.2565921959593D-03 -2.3314024337924D-02
   118  1.1700000000000D+00  3.6951803958198D-03 -1.8010144615644D-02
   119  1.1800000000000D+00  3.1137151866234D-03 -1.3556010644799D-02
   120  1.1900000000000D+00  2.5421868844758D-03 -9.9034593781744D-03
   121  1.2000000000000D+00  2.0046794016149D-03 -6.9875505937913D-03
   122  1.2100000000000D+00  1.5195530688979D-03 -4.7307473424739D-03
   123  1.2200000000000D+00  1.0996824537842D-03 -3.0470976042630D-03
   124  1.2300000000000D+00  7.5273133494891D-04 -1.8463095652400D-03
   125  1.2400000000000D+00  4.8144786672105D-04 -1.0376199415720D-03
   126  1.2500000000000D+00  2.8401244334108D-04 -5.3346634905827D-04
   127  1.2600000000000D+00  1.5410989894906D-04 -2.5219317158568D-04
   128  1.2700000000000D+00  8.0566686317429D-05 -1.1982313338975D-04
   129  1.2800000000000D+00  5.4920459118143D-05 -8.4703850050190D-05
   130  1.2900000000000D+00  5.1039182672396D-05 -8.4349508809096D-05
   131  1.3000000000000D+00  2.4027440704876D-05 -4.0661078512655D-05
   132  1.3100000000000D+00 -3.3141934618705D-06  5.6465765858483D-06
   133  1.3200000000000D+00 -2.5309226259637D-06  4.3352371692787D-06
   134  1.3300000000000D+00  1.1372181844633D-06 -1.9187597586792D-06
   135  1.3400000000000D+00 -3.0975778007555D-08  5.1533149042663D-08
   136  1.3500000000000D+00 -1.1144924730798D-07  1.8541360513411D-07
   137  1.3600000000000D+00  0.0000000000000D+00  0.0000000000000D+00
   138  1.3700000000000D+00  0.0000000000000D+00  0.0000000000000D+00
   139  1.3800000000000D+00  0.0000000000000D+00  0.0000000000000D+00
   140  1.3900000000000D+00  0.0000000000000D+00  0.0000000000000D+00
   141  1.4000000000000D+00  0.0000000000000D+00  0.0000000000000D+00
   142  1.4100000000000D+00  0.0000000000000D+00  0.0000000000000D+00
   143  1.4200000000000D+00  0.0000000000000D+00  0.0000000000000D+00
   144  1.4300000000000D+00  0.0000000000000D+00  0.0000000000000D+00
   145  1.4400000000000D+00  0.0000000000000D+00  0.0000000000000D+00
   146  1.4500000000000D+00  0.0000000000000D+00  0.0000000000000D+00
   147  1.4600000000000D+00  0.0000000000000D+00  0.0000000000000D+00
   148  1.4700000000000D+00  0.0000000000000D+00  0.0000000000000D+00
   149  1.4800000000000D+00  0.0000000000000D+00  0.0000000000000D+00
   150  1.4900000000000D+00  0.0000000000000D+00  0.0000000000000D+00
   151  1.5000000000000D+00  0.0000000000000D+00  0.0000000000000D+00
   152  1.5100000000000D+00  0.0000000000000D+00  0.0000000000000D+00
   153  1.5200000000000D+00  0.0000000000000D+00  0.0000000000000D+00
   154  1.5300000000000D+00  0.0000000000000D+00  0.0000000000000D+00
   155  1.5400000000000D+00  0.0000000000000D+00  0.0000000000000D+00
   156  1.5500000000000D+00  0.0000000000000D+00  0.0000000000000D+00
   157  1.5600000000000D+00  0.0000000000000D+00  0.0000000000000D+00
   158  1.5700000000000D+00  0.0000000000000D+00  0.0000000000000D+00
   159  1.5800000000000D+00  0.0000000000000D+00  0.0000000000000D+00
   160  1.5900000000000D+00  0.0000000000000D+00  0.0000000000000D+00
   161  1.6000000000000D+00  0.0000000000000D+00  0.0000000000000D+00
   162  1.6100000000000D+00  0.0000000000000D+00  0.0000000000000D+00
   163  1.6200000000000D+00  0.0000000000000D+00  0.0000000000000D+00
   164  1.6300000000000D+00  0.0000000000000D+00  0.0000000000000D+00
   165  1.6400000000000D+00  0.0000000000000D+00  0.0000000000000D+00
   166  1.6500000000000D+00  0.0000000000000D+00  0.0000000000000D+00
   167  1.6600000000000D+00  0.0000000000000D+00  0.0000000000000D+00
   168  1.6700000000000D+00  0.0000000000000D+00  0.0000000000000D+00
   169  1.6800000000000D+00  0.0000000000000D+00  0.0000000000000D+00
   170  1.6900000000000D+00  0.0000000000000D+00  0.0000000000000D+00
   171  1.7000000000000D+00  0.0000000000000D+00  0.0000000000000D+00
   172  1.7100000000000D+00  0.0000000000000D+00  0.0000000000000D+00
   173  1.7200000000000D+00  0.0000000000000D+00  0.0000000000000D+00
   174  1.7300000000000D+00  0.0000000000000D+00  0.0000000000000D+00
   175  1.7400000000000D+00  0.0000000000000D+00  0.0000000000000D+00
   176  1.7500000000000D+00  0.0000000000000D+00  0.0000000000000D+00
   177  1.7600000000000D+00  0.0000000000000D+00  0.0000000000000D+00
   178  1.7700000000000D+00  0.0000000000000D+00  0.0000000000000D+00
   179  1.7800000000000D+00  0.0000000000000D+00  0.0000000000000D+00
   180  1.7900000000000D+00  0.0000000000000D+00  0.0000000000000D+00
   181  1.8000000000000D+00  0.0000000000000D+00  0.0000000000000D+00
   182  1.8100000000000D+00  0.0000000000000D+00  0.0000000000000D+00
   183  1.8200000000000D+00  0.0000000000000D+00  0.0000000000000D+00
   184  1.8300000000000D+00  0.0000000000000D+00  0.0000000000000D+00
   185  1.8400000000000D+00  0.0000000000000D+00  0.0000000000000D+00
   186  1.8500000000000D+00  0.0000000000000D+00  0.0000000000000D+00
   187  1.8600000000000D+00  0.0000000000000D+00  0.0000000000000D+00
   188  1.8700000000000D+00  0.0000000000000D+00  0.0000000000000D+00
   189  1.8800000000000D+00  0.0000000000000D+00  0.0000000000000D+00
   190  1.8900000000000D+00  0.0000000000000D+00  0.0000000000000D+00
   191  1.9000000000000D+00  0.0000000000000D+00  0.0000000000000D+00
   192  1.9100000000000D+00  0.0000000000000D+00  0.0000000000000D+00
   193  1.9200000000000D+00  0.0000000000000D+00  0.0000000000000D+00
   194  1.9300000000000D+00  0.0000000000000D+00  0.0000000000000D+00
   195  1.9400000000000D+00  0.0000000000000D+00  0.0000000000000D+00
   196  1.9500000000000D+00  0.0000000000000D+00  0.0000000000000D+00
   197  1.9600000000000D+00  0.0000000000000D+00  0.0000000000000D+00
   198  1.9700000000000D+00  0.0000000000000D+00  0.0000000000000D+00
   199  1.9800000000000D+00  0.0000000000000D+00  0.0000000000000D+00
   200  1.9900000000000D+00  0.0000000000000D+00  0.0000000000000D+00
   201  2.0000000000000D+00  0.0000000000000D+00  0.0000000000000D+00
   202  2.0100000000000D+00  0.0000000000000D+00  0.0000000000000D+00
   203  2.0200000000000D+00  0.0000000000000D+00  0.0000000000000D+00
   204  2.0300000000000D+00  0.0000000000000D+00  0.0000000000000D+00
   205  2.0400000000000D+00  0.0000000000000D+00  0.0000000000000D+00
   206  2.0500000000000D+00  0.0000000000000D+00  0.0000000000000D+00
   207  2.0600000000000D+00  0.0000000000000D+00  0.0000000000000D+00
   208  2.0700000000000D+00  0.0000000000000D+00  0.0000000000000D+00
   209  2.0800000000000D+00  0.0000000000000D+00  0.0000000000000D+00
   210  2.0900000000000D+00  0.0000000000000D+00  0.0000000000000D+00
   211  2.1000000000000D+00  0.0000000000000D+00  0.0000000000000D+00
   212  2.1100000000000D+00  0.0000000000000D+00  0.0000000000000D+00
   213  2.1200000000000D+00  0.0000000000000D+00  0.0000000000000D+00
   214  2.1300000000000D+00  0.0000000000000D+00  0.0000000000000D+00
   215  2.1400000000000D+00  0.0000000000000D+00  0.0000000000000D+00
   216  2.1500000000000D+00  0.0000000000000D+00  0.0000000000000D+00
   217  2.1600000000000D+00  0.0000000000000D+00  0.0000000000000D+00
   218  2.1700000000000D+00  0.0000000000000D+00  0.0000000000000D+00
   219  2.1800000000000D+00  0.0000000000000D+00  0.0000000000000D+00
   220  2.1900000000000D+00  0.0000000000000D+00  0.0000000000000D+00
   221  2.2000000000000D+00  0.0000000000000D+00  0.0000000000000D+00
   222  2.2100000000000D+00  0.0000000000000D+00  0.0000000000000D+00
   223  2.2200000000000D+00  0.0000000000000D+00  0.0000000000000D+00
   224  2.2300000000000D+00  0.0000000000000D+00  0.0000000000000D+00
   225  2.2400000000000D+00  0.0000000000000D+00  0.0000000000000D+00
   226  2.2500000000000D+00  0.0000000000000D+00  0.0000000000000D+00
   227  2.2600000000000D+00  0.0000000000000D+00  0.0000000000000D+00
   228  2.2700000000000D+00  0.0000000000000D+00  0.0000000000000D+00
   229  2.2800000000000D+00  0.0000000000000D+00  0.0000000000000D+00
   230  2.2900000000000D+00  0.0000000000000D+00  0.0000000000000D+00
   231  2.3000000000000D+00  0.0000000000000D+00  0.0000000000000D+00
   232  2.3100000000000D+00  0.0000000000000D+00  0.0000000000000D+00
   233  2.3200000000000D+00  0.0000000000000D+00  0.0000000000000D+00
   234  2.3300000000000D+00  0.0000000000000D+00  0.0000000000000D+00
   235  2.3400000000000D+00  0.0000000000000D+00  0.0000000000000D+00
   236  2.3500000000000D+00  0.0000000000000D+00  0.0000000000000D+00
   237  2.3600000000000D+00  0.0000000000000D+00  0.0000000000000D+00
   238  2.3700000000000D+00  0.0000000000000D+00  0.0000000000000D+00
   239  2.3800000000000D+00  0.0000000000000D+00  0.0000000000000D+00
   240  2.3900000000000D+00  0.0000000000000D+00  0.0000000000000D+00
   241  2.4000000000000D+00  0.0000000000000D+00  0.0000000000000D+00
   242  2.4100000000000D+00  0.0000000000000D+00  0.0000000000000D+00
   243  2.4200000000000D+00  0.0000000000000D+00  0.0000000000000D+00
   244  2.4300000000000D+00  0.0000000000000D+00  0.0000000000000D+00
   245  2.4400000000000D+00  0.0000000000000D+00  0.0000000000000D+00
   246  2.4500000000000D+00  0.0000000000000D+00  0.0000000000000D+00
   247  2.4600000000000D+00  0.0000000000000D+00  0.0000000000000D+00
   248  2.4700000000000D+00  0.0000000000000D+00  0.0000000000000D+00
   249  2.4800000000000D+00  0.0000000000000D+00  0.0000000000000D+00
   250  2.4900000000000D+00  0.0000000000000D+00  0.0000000000000D+00
   251  2.5000000000000D+00  0.0000000000000D+00  0.0000000000000D+00
   252  2.5100000000000D+00  0.0000000000000D+00  0.0000000000000D+00
   253  2.5200000000000D+00  0.0000000000000D+00  0.0000000000000D+00
   254  2.5300000000000D+00  0.0000000000000D+00  0.0000000000000D+00
   255  2.5400000000000D+00  0.0000000000000D+00  0.0000000000000D+00
   256  2.5500000000000D+00  0.0000000000000D+00  0.0000000000000D+00
   257  2.5600000000000D+00  0.0000000000000D+00  0.0000000000000D+00
   258  2.5700000000000D+00  0.0000000000000D+00  0.0000000000000D+00
   259  2.5800000000000D+00  0.0000000000000D+00  0.0000000000000D+00
   260  2.5900000000000D+00  0.0000000000000D+00  0.0000000000000D+00
   261  2.6000000000000D+00  0.0000000000000D+00  0.0000000000000D+00
   262  2.6100000000000D+00  0.0000000000000D+00  0.0000000000000D+00
   263  2.6200000000000D+00  0.0000000000000D+00  0.0000000000000D+00
   264  2.6300000000000D+00  0.0000000000000D+00  0.0000000000000D+00
   265  2.6400000000000D+00  0.0000000000000D+00  0.0000000000000D+00
   266  2.6500000000000D+00  0.0000000000000D+00  0.0000000000000D+00
   267  2.6600000000000D+00  0.0000000000000D+00  0.0000000000000D+00
   268  2.6700000000000D+00  0.0000000000000D+00  0.0000000000000D+00
   269  2.6800000000000D+00  0.0000000000000D+00  0.0000000000000D+00
   270  2.6900000000000D+00  0.0000000000000D+00  0.0000000000000D+00
   271  2.7000000000000D+00  0.0000000000000D+00  0.0000000000000D+00
   272  2.7100000000000D+00  0.0000000000000D+00  0.0000000000000D+00
   273  2.7200000000000D+00  0.0000000000000D+00  0.0000000000000D+00
   274  2.7300000000000D+00  0.0000000000000D+00  0.0000000000000D+00
   275  2.7400000000000D+00  0.0000000000000D+00  0.0000000000000D+00
   276  2.7500000000000D+00  0.0000000000000D+00  0.0000000000000D+00
   277  2.7600000000000D+00  0.0000000000000D+00  0.0000000000000D+00
   278  2.7700000000000D+00  0.0000000000000D+00  0.0000000000000D+00
   279  2.7800000000000D+00  0.0000000000000D+00  0.0000000000000D+00
   280  2.7900000000000D+00  0.0000000000000D+00  0.0000000000000D+00
   281  2.8000000000000D+00  0.0000000000000D+00  0.0000000000000D+00
   282  2.8100000000000D+00  0.0000000000000D+00  0.0000000000000D+00
   283  2.8200000000000D+00  0.0000000000000D+00  0.0000000000000D+00
   284  2.8300000000000D+00  0.0000000000000D+00  0.0000000000000D+00
   285  2.8400000000000D+00  0.0000000000000D+00  0.0000000000000D+00
   286  2.8500000000000D+00  0.0000000000000D+00  0.0000000000000D+00
   287  2.8600000000000D+00  0.0000000000000D+00  0.0000000000000D+00
   288  2.8700000000000D+00  0.0000000000000D+00  0.0000000000000D+00
   289  2.8800000000000D+00  0.0000000000000D+00  0.0000000000000D+00
   290  2.8900000000000D+00  0.0000000000000D+00  0.0000000000000D+00
   291  2.9000000000000D+00  0.0000000000000D+00  0.0000000000000D+00
   292  2.9100000000000D+00  0.0000000000000D+00  0.0000000000000D+00
   293  2.9200000000000D+00  0.0000000000000D+00  0.0000000000000D+00
   294  2.9300000000000D+00  0.0000000000000D+00  0.0000000000000D+00
   295  2.9400000000000D+00  0.0000000000000D+00  0.0000000000000D+00
   296  2.9500000000000D+00  0.0000000000000D+00  0.0000000000000D+00
   297  2.9600000000000D+00  0.0000000000000D+00  0.0000000000000D+00
   298  2.9700000000000D+00  0.0000000000000D+00  0.0000000000000D+00
   299  2.9800000000000D+00  0.0000000000000D+00  0.0000000000000D+00
   300  2.9900000000000D+00  0.0000000000000D+00  0.0000000000000D+00
   301  3.0000000000000D+00  0.0000000000000D+00  0.0000000000000D+00
   302  3.0100000000000D+00  0.0000000000000D+00  0.0000000000000D+00
   303  3.0200000000000D+00  0.0000000000000D+00  0.0000000000000D+00
   304  3.0300000000000D+00  0.0000000000000D+00  0.0000000000000D+00
   305  3.0400000000000D+00  0.0000000000000D+00  0.0000000000000D+00
   306  3.0500000000000D+00  0.0000000000000D+00  0.0000000000000D+00
   307  3.0600000000000D+00  0.0000000000000D+00  0.0000000000000D+00
   308  3.0700000000000D+00  0.0000000000000D+00  0.0000000000000D+00
   309  3.0800000000000D+00  0.0000000000000D+00  0.0000000000000D+00
   310  3.0900000000000D+00  0.0000000000000D+00  0.0000000000000D+00
   311  3.1000000000000D+00  0.0000000000000D+00  0.0000000000000D+00
   312  3.1100000000000D+00  0.0000000000000D+00  0.0000000000000D+00
   313  3.1200000000000D+00  0.0000000000000D+00  0.0000000000000D+00
   314  3.1300000000000D+00  0.0000000000000D+00  0.0000000000000D+00
   315  3.1400000000000D+00  0.0000000000000D+00  0.0000000000000D+00
   316  3.1500000000000D+00  0.0000000000000D+00  0.0000000000000D+00
   317  3.1600000000000D+00  0.0000000000000D+00  0.0000000000000D+00
   318  3.1700000000000D+00  0.0000000000000D+00  0.0000000000000D+00
   319  3.1800000000000D+00  0.0000000000000D+00  0.0000000000000D+00
   320  3.1900000000000D+00  0.0000000000000D+00  0.0000000000000D+00
   321  3.2000000000000D+00  0.0000000000000D+00  0.0000000000000D+00
   322  3.2100000000000D+00  0.0000000000000D+00  0.0000000000000D+00
   323  3.2200000000000D+00  0.0000000000000D+00  0.0000000000000D+00
   324  3.2300000000000D+00  0.0000000000000D+00  0.0000000000000D+00
   325  3.2400000000000D+00  0.0000000000000D+00  0.0000000000000D+00
   326  3.2500000000000D+00  0.0000000000000D+00  0.0000000000000D+00
   327  3.2600000000000D+00  0.0000000000000D+00  0.0000000000000D+00
   328  3.2700000000000D+00  0.0000000000000D+00  0.0000000000000D+00
   329  3.2800000000000D+00  0.0000000000000D+00  0.0000000000000D+00
   330  3.2900000000000D+00  0.0000000000000D+00  0.0000000000000D+00
   331  3.3000000000000D+00  0.0000000000000D+00  0.0000000000000D+00
   332  3.3100000000000D+00  0.0000000000000D+00  0.0000000000000D+00
   333  3.3200000000000D+00  0.0000000000000D+00  0.0000000000000D+00
   334  3.3300000000000D+00  0.0000000000000D+00  0.0000000000000D+00
   335  3.3400000000000D+00  0.0000000000000D+00  0.0000000000000D+00
   336  3.3500000000000D+00  0.0000000000000D+00  0.0000000000000D+00
   337  3.3600000000000D+00  0.0000000000000D+00  0.0000000000000D+00
   338  3.3700000000000D+00  0.0000000000000D+00  0.0000000000000D+00
   339  3.3800000000000D+00  0.0000000000000D+00  0.0000000000000D+00
   340  3.3900000000000D+00  0.0000000000000D+00  0.0000000000000D+00
   341  3.4000000000000D+00  0.0000000000000D+00  0.0000000000000D+00
   342  3.4100000000000D+00  0.0000000000000D+00  0.0000000000000D+00
   343  3.4200000000000D+00  0.0000000000000D+00  0.0000000000000D+00
   344  3.4300000000000D+00  0.0000000000000D+00  0.0000000000000D+00
   345  3.4400000000000D+00  0.0000000000000D+00  0.0000000000000D+00
   346  3.4500000000000D+00  0.0000000000000D+00  0.0000000000000D+00
   347  3.4600000000000D+00  0.0000000000000D+00  0.0000000000000D+00
   348  3.4700000000000D+00  0.0000000000000D+00  0.0000000000000D+00
   349  3.4800000000000D+00  0.0000000000000D+00  0.0000000000000D+00
   350  3.4900000000000D+00  0.0000000000000D+00  0.0000000000000D+00
   351  3.5000000000000D+00  0.0000000000000D+00  0.0000000000000D+00
   352  3.5100000000000D+00  0.0000000000000D+00  0.0000000000000D+00
   353  3.5200000000000D+00  0.0000000000000D+00  0.0000000000000D+00
   354  3.5300000000000D+00  0.0000000000000D+00  0.0000000000000D+00
   355  3.5400000000000D+00  0.0000000000000D+00  0.0000000000000D+00
   356  3.5500000000000D+00  0.0000000000000D+00  0.0000000000000D+00
   357  3.5600000000000D+00  0.0000000000000D+00  0.0000000000000D+00
   358  3.5700000000000D+00  0.0000000000000D+00  0.0000000000000D+00
   359  3.5800000000000D+00  0.0000000000000D+00  0.0000000000000D+00
   360  3.5900000000000D+00  0.0000000000000D+00  0.0000000000000D+00
   361  3.6000000000000D+00  0.0000000000000D+00  0.0000000000000D+00
   362  3.6100000000000D+00  0.0000000000000D+00  0.0000000000000D+00
   363  3.6200000000000D+00  0.0000000000000D+00  0.0000000000000D+00
   364  3.6300000000000D+00  0.0000000000000D+00  0.0000000000000D+00
   365  3.6400000000000D+00  0.0000000000000D+00  0.0000000000000D+00
   366  3.6500000000000D+00  0.0000000000000D+00  0.0000000000000D+00
   367  3.6600000000000D+00  0.0000000000000D+00  0.0000000000000D+00
   368  3.6700000000000D+00  0.0000000000000D+00  0.0000000000000D+00
   369  3.6800000000000D+00  0.0000000000000D+00  0.0000000000000D+00
   370  3.6900000000000D+00  0.0000000000000D+00  0.0000000000000D+00
   371  3.7000000000000D+00  0.0000000000000D+00  0.0000000000000D+00
   372  3.7100000000000D+00  0.0000000000000D+00  0.0000000000000D+00
   373  3.7200000000000D+00  0.0000000000000D+00  0.0000000000000D+00
   374  3.7300000000000D+00  0.0000000000000D+00  0.0000000000000D+00
   375  3.7400000000000D+00  0.0000000000000D+00  0.0000000000000D+00
   376  3.7500000000000D+00  0.0000000000000D+00  0.0000000000000D+00
   377  3.7600000000000D+00  0.0000000000000D+00  0.0000000000000D+00
   378  3.7700000000000D+00  0.0000000000000D+00  0.0000000000000D+00
   379  3.7800000000000D+00  0.0000000000000D+00  0.0000000000000D+00
   380  3.7900000000000D+00  0.0000000000000D+00  0.0000000000000D+00
   381  3.8000000000000D+00  0.0000000000000D+00  0.0000000000000D+00
   382  3.8100000000000D+00  0.0000000000000D+00  0.0000000000000D+00
   383  3.8200000000000D+00  0.0000000000000D+00  0.0000000000000D+00
   384  3.8300000000000D+00  0.0000000000000D+00  0.0000000000000D+00
   385  3.8400000000000D+00  0.0000000000000D+00  0.0000000000000D+00
   386  3.8500000000000D+00  0.0000000000000D+00  0.0000000000000D+00
   387  3.8600000000000D+00  0.0000000000000D+00  0.0000000000000D+00
   388  3.8700000000000D+00  0.0000000000000D+00  0.0000000000000D+00
   389  3.8800000000000D+00  0.0000000000000D+00  0.0000000000000D+00
   390  3.8900000000000D+00  0.0000000000000D+00  0.0000000000000D+00
   391  3.9000000000000D+00  0.0000000000000D+00  0.0000000000000D+00
   392  3.9100000000000D+00  0.0000000000000D+00  0.0000000000000D+00
   393  3.9200000000000D+00  0.0000000000000D+00  0.0000000000000D+00
   394  3.9300000000000D+00  0.0000000000000D+00  0.0000000000000D+00
   395  3.9400000000000D+00  0.0000000000000D+00  0.0000000000000D+00
   396  3.9500000000000D+00  0.0000000000000D+00  0.0000000000000D+00
   397  3.9600000000000D+00  0.0000000000000D+00  0.0000000000000D+00
   398  3.9700000000000D+00  0.0000000000000D+00  0.0000000000000D+00
   399  3.9800000000000D+00  0.0000000000000D+00  0.0000000000000D+00
   400  3.9900000000000D+00  0.0000000000000D+00  0.0000000000000D+00
   401  4.0000000000000D+00  0.0000000000000D+00  0.0000000000000D+00
   402  4.0100000000000D+00  0.0000000000000D+00  0.0000000000000D+00
   403  4.0200000000000D+00  0.0000000000000D+00  0.0000000000000D+00
   404  4.0300000000000D+00  0.0000000000000D+00  0.0000000000000D+00
   405  4.0400000000000D+00  0.0000000000000D+00  0.0000000000000D+00
   406  4.0500000000000D+00  0.0000000000000D+00  0.0000000000000D+00
   407  4.0600000000000D+00  0.0000000000000D+00  0.0000000000000D+00
   408  4.0700000000000D+00  0.0000000000000D+00  0.0000000000000D+00
   409  4.0800000000000D+00  0.0000000000000D+00  0.0000000000000D+00
   410  4.0900000000000D+00  0.0000000000000D+00  0.0000000000000D+00
   411  4.1000000000000D+00  0.0000000000000D+00  0.0000000000000D+00
   412  4.1100000000000D+00  0.0000000000000D+00  0.0000000000000D+00
   413  4.1200000000000D+00  0.0000000000000D+00  0.0000000000000D+00
   414  4.1300000000000D+00  0.0000000000000D+00  0.0000000000000D+00
   415  4.1400000000000D+00  0.0000000000000D+00  0.0000000000000D+00
   416  4.1500000000000D+00  0.0000000000000D+00  0.0000000000000D+00
   417  4.1600000000000D+00  0.0000000000000D+00  0.0000000000000D+00
   418  4.1700000000000D+00  0.0000000000000D+00  0.0000000000000D+00
   419  4.1800000000000D+00  0.0000000000000D+00  0.0000000000000D+00
   420  4.1900000000000D+00  0.0000000000000D+00  0.0000000000000D+00
   421  4.2000000000000D+00  0.0000000000000D+00  0.0000000000000D+00
   422  4.2100000000000D+00  0.0000000000000D+00  0.0000000000000D+00
   423  4.2200000000000D+00  0.0000000000000D+00  0.0000000000000D+00