Os    ONCVPSP-3.3.1  r_core=   1.76739   1.87601   1.51352   2.61993
     76.0000     16.0000      210904    zatom,zion,pspd
     8      11   3     4   600     0    pspcod,pspxc,lmax,lloc,mmax,r2well
  5.99000000  0.00000000  0.00000000    rchrg fchrg qchrg
     2     4     3     4    nproj
     3     1           extension_switch
     4     4     4    nprojso
   0                         2.0561656188404D+00  1.4087210528408D+01
     1  0.0000000000000D+00 -3.1711791526057D-10  1.3865281145442D-10
     2  1.0000000000000D-02 -9.4432166631181D-03  5.2749244207693D-02
     3  2.0000000000000D-02 -1.8929678977788D-02  1.0546973359698D-01
     4  3.0000000000000D-02 -2.8501602464365D-02  1.5813230323283D-01
     5  4.0000000000000D-02 -3.8199152656616D-02  2.1070697240943D-01
     6  5.0000000000000D-02 -4.8059445717485D-02  2.6316254788589D-01
     7  6.0000000000000D-02 -5.8115579560929D-02  3.1546624036869D-01
     8  7.0000000000000D-02 -6.8395705275240D-02  3.6758329849333D-01
     9  8.0000000000000D-02 -7.8922148326181D-02  4.1947666441872D-01
    10  9.0000000000000D-02 -8.9710588625324D-02  4.7110665497638D-01
    11  1.0000000000000D-01 -1.0076930808273D-01  5.2243067211298D-01
    12  1.1000000000000D-01 -1.1209851372616D-01  5.7340294613064D-01
    13  1.2000000000000D-01 -1.2368974386471D-01  6.2397431496647D-01
    14  1.3000000000000D-01 -1.3552536410700D-01  6.7409204246253D-01
    15  1.4000000000000D-01 -1.4757815931639D-01  7.2369967826140D-01
    16  1.5000000000000D-01 -1.5981102680403D-01  7.7273696162417D-01
    17  1.6000000000000D-01 -1.7217677522787D-01  8.2113977110735D-01
    18  1.7000000000000D-01 -1.8461803278998D-01  8.6884012165717D-01
    19  1.8000000000000D-01 -1.9706726740938D-01  9.1576621028558D-01
    20  1.9000000000000D-01 -2.0944692060062D-01  9.6184251108498D-01
    21  2.0000000000000D-01 -2.2166965581527D-01  1.0069899199215D+00
    22  2.1000000000000D-01 -2.3363872101244D-01  1.0511259487217D+00
    23  2.2000000000000D-01 -2.4524842422082D-01  1.0941649688399D+00
    24  2.3000000000000D-01 -2.5638471984793D-01  1.1360185025624D+00
    25  2.4000000000000D-01 -2.6692590248838D-01  1.1765955613791D+00
    26  2.5000000000000D-01 -2.7674340399122D-01  1.2158030292317D+00
    27  2.6000000000000D-01 -2.8570268857317D-01  1.2535460885328D+00
    28  2.7000000000000D-01 -2.9366423981979D-01  1.2897286863541D+00
    29  2.8000000000000D-01 -3.0048463250677D-01  1.3242540377935D+00
    30  2.9000000000000D-01 -3.0601768130707D-01  1.3570251631660D+00
    31  3.0000000000000D-01 -3.1011565763526D-01  1.3879454553221D+00
    32  3.1000000000000D-01 -3.1263056512420D-01  1.4169192730723D+00
    33  3.2000000000000D-01 -3.1341546354036D-01  1.4438525564114D+00
    34  3.3000000000000D-01 -3.1232583032809D-01  1.4686534589711D+00
    35  3.4000000000000D-01 -3.0922094843800D-01  1.4912329929028D+00
    36  3.5000000000000D-01 -3.0396530864575D-01  1.5115056812019D+00
    37  3.6000000000000D-01 -2.9643001421060D-01  1.5293902123263D+00
    38  3.7000000000000D-01 -2.8649417546401D-01  1.5448100918513D+00
    39  3.8000000000000D-01 -2.7404628175997D-01  1.5576942858236D+00
    40  3.9000000000000D-01 -2.5898553816661D-01  1.5679778504500D+00
    41  4.0000000000000D-01 -2.4122315433309D-01  1.5756025427621D+00
    42  4.1000000000000D-01 -2.2068357313090D-01  1.5805174069582D+00
    43  4.2000000000000D-01 -1.9730562694436D-01  1.5826793312178D+00
    44  4.3000000000000D-01 -1.7104360987117D-01  1.5820535699318D+00
    45  4.4000000000000D-01 -1.4186825459058D-01  1.5786142264724D+00
    46  4.5000000000000D-01 -1.0976760326014D-01  1.5723446918608D+00
    47  4.6000000000000D-01 -7.4747762511281D-02  1.5632380349578D+00
    48  4.7000000000000D-01 -3.6833533423039D-02  1.5512973401147D+00
    49  4.8000000000000D-01  3.9310917415649D-03  1.5365359885690D+00
    50  4.9000000000000D-01  4.7482573257405D-02  1.5189778802533D+00
    51  5.0000000000000D-01  9.3737614261907D-02  1.4986575931040D+00
    52  5.1000000000000D-01  1.4259310267528D-01  1.4756204774003D+00
    53  5.2000000000000D-01  1.9392620849295D-01  1.4499226831389D+00
    54  5.3000000000000D-01  2.4759463895483D-01  1.4216311189467D+00
    55  5.4000000000000D-01  3.0343705277887D-01  1.3908233415462D+00
    56  5.5000000000000D-01  3.6127363329454D-01  1.3575873753201D+00
    57  5.6000000000000D-01  4.2090681894057D-01  1.3220214620629D+00
    58  5.7000000000000D-01  4.8212218820564D-01  1.2842337415528D+00
    59  5.8000000000000D-01  5.4468949471310D-01  1.2443418641262D+00
    60  5.9000000000000D-01  6.0836384678293D-01  1.2024725369820D+00
    61  6.0000000000000D-01  6.7288702447135D-01  1.1587610064825D+00
    62  6.1000000000000D-01  7.3798892578827D-01  1.1133504792394D+00
    63  6.2000000000000D-01  8.0338913255797D-01  1.0663914852838D+00
    64  6.3000000000000D-01  8.6879858520704D-01  1.0180411871047D+00
    65  6.4000000000000D-01  9.3392135467256D-01  9.6846263879975D-01
    66  6.5000000000000D-01  9.9845649861504D-01  9.1782400001170D-01
    67  6.6000000000000D-01  1.0620999882143D+00  8.6629770971976D-01
    68  6.7000000000000D-01  1.1245466910337D+00  8.1405962531132D-01
    69  6.8000000000000D-01  1.1854923947609D+00  7.6128813267466D-01
    70  6.9000000000000D-01  1.2446358560859D+00  7.0816323332463D-01
    71  7.0000000000000D-01  1.3016808585642D+00  6.5486561479590D-01
    72  7.1000000000000D-01  1.3563382630380D+00  6.0157571071232D-01
    73  7.2000000000000D-01  1.4083280340598D+00  5.4847275706285D-01
    74  7.3000000000000D-01  1.4573812257779D+00  4.9573385128430D-01
    75  7.4000000000000D-01  1.5032419109101D+00  4.4353302076610D-01
    76  7.5000000000000D-01  1.5456690367432D+00  3.9204030735441D-01
    77  7.6000000000000D-01  1.5844381925576D+00  3.4142087433970D-01
    78  7.7000000000000D-01  1.6193432734732D+00  2.9183414226711D-01
    79  7.8000000000000D-01  1.6501980264594D+00  2.4343295971005D-01
    80  7.9000000000000D-01  1.6768374651207D+00  1.9636281489921D-01
    81  8.0000000000000D-01  1.6991191408685D+00  1.5076109380261D-01
    82  8.1000000000000D-01  1.7169242592007D+00  1.0675638990907D-01
    83  8.2000000000000D-01  1.7301586310321D+00  6.4467870582668D-02
    84  8.3000000000000D-01  1.7387534503283D+00  2.4004704430534D-02
    85  8.4000000000000D-01  1.7426658906909D+00 -1.4534446333108D-02
    86  8.5000000000000D-01  1.7418795150055D+00 -5.1061865035373D-02
    87  8.6000000000000D-01  1.7364044937776D+00 -8.5501148231811D-02
    88  8.7000000000000D-01  1.7262776293391D+00 -1.1778749949818D-01
    89  8.8000000000000D-01  1.7115621846877D+00 -1.4786794744935D-01
    90  8.9000000000000D-01  1.6923475173063D+00 -1.7570148667595D-01
    91  9.0000000000000D-01  1.6687485198928D+00 -2.0125914086407D-01
    92  9.1000000000000D-01  1.6409048714842D+00 -2.2452394793911D-01
    93  9.2000000000000D-01  1.6089801039767D+00 -2.4549086764620D-01
    94  9.3000000000000D-01  1.5731604905077D+00 -2.6416661254207D-01
    95  9.4000000000000D-01  1.5336537635573D+00 -2.8056940392022D-01
    96  9.5000000000000D-01  1.4906876719366D+00 -2.9472865471927D-01
    97  9.6000000000000D-01  1.4445083870498D+00 -3.0668458196919D-01
    98  9.7000000000000D-01  1.3953787699168D+00 -3.1648775180289D-01
    99  9.8000000000000D-01  1.3435765114263D+00 -3.2419856050071D-01
   100  9.9000000000000D-01  1.2893921591629D+00 -3.2988665544673D-01
   101  1.0000000000000D+00  1.2331270448556D+00 -3.3363030023361D-01
   102  1.0100000000000D+00  1.1750911270796D+00 -3.3551568847739D-01
   103  1.0200000000000D+00  1.1156007642709D+00 -3.3563621117840D-01
   104  1.0300000000000D+00  1.0549764333856D+00 -3.3409168269406D-01
   105  1.0400000000000D+00  9.9354040965383D-01 -3.3098753056359D-01
   106  1.0500000000000D+00  9.3161442285915D-01 -3.2643395455798D-01
   107  1.0600000000000D+00  8.6951730536942D-01 -3.2054506040558D-01
   108  1.0700000000000D+00  8.0756264682420D-01 -3.1343797366900D-01
   109  1.0800000000000D+00  7.4605646988791D-01 -3.0523193922627D-01
   110  1.0900000000000D+00  6.8529494085555D-01 -2.9604741173439D-01
   111  1.1000000000000D+00  6.2556212821347D-01 -2.8600514234974D-01
   112  1.1100000000000D+00  5.6712782128356D-01 -2.7522526679429D-01
   113  1.1200000000000D+00  5.1024542020167D-01 -2.6382639967022D-01
   114  1.1300000000000D+00  4.5514990724058D-01 -2.5192473963853D-01
   115  1.1400000000000D+00  4.0205590866620D-01 -2.3963318988264D-01
   116  1.1500000000000D+00  3.5115585467289D-01 -2.2706049785897D-01
   117  1.1600000000000D+00  3.0261824394066D-01 -2.1431041806386D-01
   118  1.1700000000000D+00  2.5658601153214D-01 -2.0148089973695D-01
   119  1.1800000000000D+00  2.1317503078746D-01 -1.8866330818879D-01
   120  1.1900000000000D+00  1.7247271786727D-01 -1.7594167592671D-01
   121  1.2000000000000D+00  1.3453695071291D-01 -1.6339202986356D-01
   122  1.2100000000000D+00  9.9393713032180D-02 -1.5108145008719D-01
   123  1.2200000000000D+00  6.7041082002582D-02 -1.3906852628062D-01
   124  1.2300000000000D+00  3.7455480916830D-02 -1.2740440739667D-01
   125  1.2400000000000D+00  1.0598630714667D-02 -1.1613416592447D-01
   126  1.2500000000000D+00 -1.3581602960250D-02 -1.0529688772545D-01
   127  1.2600000000000D+00 -3.5150765111710D-02 -9.4925707452584D-02
   128  1.2700000000000D+00 -5.4186635866669D-02 -8.5048007556592D-02
   129  1.2800000000000D+00 -7.0778225576480D-02 -7.5685602119760D-02
   130  1.2900000000000D+00 -8.5024686642914D-02 -6.6854954994829D-02
   131  1.3000000000000D+00 -9.7034161566017D-02 -5.8567428304267D-02
   132  1.3100000000000D+00 -1.0692261433115D-01 -5.0829549979861D-02
   133  1.3200000000000D+00 -1.1481263422995D-01 -4.3643302380528D-02
   134  1.3300000000000D+00 -1.2083222129556D-01 -3.7006429340405D-02
   135  1.3400000000000D+00 -1.2511357353250D-01 -3.0912756379453D-02
   136  1.3500000000000D+00 -1.2779188329037D-01 -2.5352521666232D-02
   137  1.3600000000000D+00 -1.2900415557422D-01 -2.0312714051330D-02
   138  1.3700000000000D+00 -1.2888805375546D-01 -1.5777416285920D-02
   139  1.3800000000000D+00 -1.2758078210572D-01 -1.1728150427390D-02
   140  1.3900000000000D+00 -1.2521802923064D-01 -8.1442187081687D-03
   141  1.4000000000000D+00 -1.2193296286177D-01 -5.0030416676670D-03
   142  1.4100000000000D+00 -1.1785528075428D-01 -2.2804917093637D-03
   143  1.4200000000000D+00 -1.1311034362520D-01  4.8785293346298D-05
   144  1.4300000000000D+00 -1.0781838592215D-01  2.0110600000032D-03
   145  1.4400000000000D+00 -1.0209380546550D-01  3.6332221542912D-03
   146  1.4500000000000D+00 -9.6044540734454D-02  4.9424987550023D-03
   147  1.4600000000000D+00 -8.9771537827607D-02  5.9661890939995D-03
   148  1.4700000000000D+00 -8.3368311060855D-02  6.7314185147068D-03
   149  1.4800000000000D+00 -7.6920597728108D-02  7.2649118514071D-03
   150  1.4900000000000D+00 -7.0506099264100D-02  7.5927851011489D-03
   151  1.5000000000000D+00 -6.4194314267498D-02  7.7403577506143D-03
   152  1.5100000000000D+00 -5.8046479458184D-02  7.7319909993553D-03
   153  1.5200000000000D+00 -5.2115587555145D-02  7.5909441340459D-03
   154  1.5300000000000D+00 -4.6446475716401D-02  7.3392481047253D-03
   155  1.5400000000000D+00 -4.1076007960562D-02  6.9976037199183D-03
   156  1.5500000000000D+00 -3.6033336812916D-02  6.5853011774213D-03
   157  1.5600000000000D+00 -3.1340226739160D-02  6.1201569818404D-03
   158  1.5700000000000D+00 -2.7011438373310D-02  5.6184687405416D-03
   159  1.5800000000000D+00 -2.3055172775225D-02  5.0949885847394D-03
   160  1.5900000000000D+00 -1.9473561323881D-02  4.5629118807605D-03
   161  1.6000000000000D+00 -1.6263197010402D-02  4.0338810169420D-03
   162  1.6100000000000D+00 -1.3415697134974D-02  3.5180020957022D-03
   163  1.6200000000000D+00 -1.0918290401557D-02  3.0238734876909D-03
   164  1.6300000000000D+00 -8.7544191365932D-03  2.5586242403114D-03
   165  1.6400000000000D+00 -6.9043488069355D-03  2.1279609685025D-03
   166  1.6500000000000D+00 -5.3457761371625D-03  1.7362213500565D-03
   167  1.6600000000000D+00 -4.0544280055074D-03  1.3864327227341D-03
   168  1.6700000000000D+00 -3.0046429042499D-03  1.0803740082534D-03
   169  1.6800000000000D+00 -2.1699279033497D-03  8.1863952694874D-04
   170  1.6900000000000D+00 -1.5234834511732D-03  6.0070302925139D-04
   171  1.7000000000000D+00 -1.0386901184154D-03  4.2498069574223D-04
   172  1.7100000000000D+00 -6.8971869268653D-04  2.8893303077749D-04
   173  1.7200000000000D+00 -4.5130787664470D-04  1.8897030752769D-04
   174  1.7300000000000D+00 -2.9814098411603D-04  1.2017863523859D-04
   175  1.7400000000000D+00 -2.1075517655640D-04  7.8059403443850D-05
   176  1.7500000000000D+00 -1.7760912373572D-04  5.9269323178490D-05
   177  1.7600000000000D+00 -1.7090697541070D-04  5.3919320156611D-05
   178  1.7700000000000D+00 -1.3805093270912D-04  4.3073982495978D-05
   179  1.7800000000000D+00 -6.1290067917886D-05  1.9101710764130D-05
   180  1.7900000000000D+00  4.8034527607428D-06 -1.4845412332510D-06
   181  1.8000000000000D+00  1.5329274927580D-05 -4.7321410424547D-06
   182  1.8100000000000D+00  1.2142987765370D-07 -3.7466642333340D-08
   183  1.8200000000000D+00 -3.5961793557132D-06  1.1069726550685D-06
   184  1.8300000000000D+00 -8.2128453323203D-07  2.5259310484539D-07
   185  1.8400000000000D+00  4.1566945086680D-07 -1.2992336720972D-07
   186  1.8500000000000D+00  2.1120333905796D-07 -6.6014591447902D-08
   187  1.8600000000000D+00  0.0000000000000D+00  0.0000000000000D+00
   188  1.8700000000000D+00  0.0000000000000D+00  0.0000000000000D+00
   189  1.8800000000000D+00  0.0000000000000D+00  0.0000000000000D+00
   190  1.8900000000000D+00  0.0000000000000D+00  0.0000000000000D+00
   191  1.9000000000000D+00  0.0000000000000D+00  0.0000000000000D+00
   192  1.9100000000000D+00  0.0000000000000D+00  0.0000000000000D+00
   193  1.9200000000000D+00  0.0000000000000D+00  0.0000000000000D+00
   194  1.9300000000000D+00  0.0000000000000D+00  0.0000000000000D+00
   195  1.9400000000000D+00  0.0000000000000D+00  0.0000000000000D+00
   196  1.9500000000000D+00  0.0000000000000D+00  0.0000000000000D+00
   197  1.9600000000000D+00  0.0000000000000D+00  0.0000000000000D+00
   198  1.9700000000000D+00  0.0000000000000D+00  0.0000000000000D+00
   199  1.9800000000000D+00  0.0000000000000D+00  0.0000000000000D+00
   200  1.9900000000000D+00  0.0000000000000D+00  0.0000000000000D+00
   201  2.0000000000000D+00  0.0000000000000D+00  0.0000000000000D+00
   202  2.0100000000000D+00  0.0000000000000D+00  0.0000000000000D+00
   203  2.0200000000000D+00  0.0000000000000D+00  0.0000000000000D+00
   204  2.0300000000000D+00  0.0000000000000D+00  0.0000000000000D+00
   205  2.0400000000000D+00  0.0000000000000D+00  0.0000000000000D+00
   206  2.0500000000000D+00  0.0000000000000D+00  0.0000000000000D+00
   207  2.0600000000000D+00  0.0000000000000D+00  0.0000000000000D+00
   208  2.0700000000000D+00  0.0000000000000D+00  0.0000000000000D+00
   209  2.0800000000000D+00  0.0000000000000D+00  0.0000000000000D+00
   210  2.0900000000000D+00  0.0000000000000D+00  0.0000000000000D+00
   211  2.1000000000000D+00  0.0000000000000D+00  0.0000000000000D+00
   212  2.1100000000000D+00  0.0000000000000D+00  0.0000000000000D+00
   213  2.1200000000000D+00  0.0000000000000D+00  0.0000000000000D+00
   214  2.1300000000000D+00  0.0000000000000D+00  0.0000000000000D+00
   215  2.1400000000000D+00  0.0000000000000D+00  0.0000000000000D+00
   216  2.1500000000000D+00  0.0000000000000D+00  0.0000000000000D+00
   217  2.1600000000000D+00  0.0000000000000D+00  0.0000000000000D+00
   218  2.1700000000000D+00  0.0000000000000D+00  0.0000000000000D+00
   219  2.1800000000000D+00  0.0000000000000D+00  0.0000000000000D+00
   220  2.1900000000000D+00  0.0000000000000D+00  0.0000000000000D+00
   221  2.2000000000000D+00  0.0000000000000D+00  0.0000000000000D+00
   222  2.2100000000000D+00  0.0000000000000D+00  0.0000000000000D+00
   223  2.2200000000000D+00  0.0000000000000D+00  0.0000000000000D+00
   224  2.2300000000000D+00  0.0000000000000D+00  0.0000000000000D+00
   225  2.2400000000000D+00  0.0000000000000D+00  0.0000000000000D+00
   226  2.2500000000000D+00  0.0000000000000D+00  0.0000000000000D+00
   227  2.2600000000000D+00  0.0000000000000D+00  0.0000000000000D+00
   228  2.2700000000000D+00  0.0000000000000D+00  0.0000000000000D+00
   229  2.2800000000000D+00  0.0000000000000D+00  0.0000000000000D+00
   230  2.2900000000000D+00  0.0000000000000D+00  0.0000000000000D+00
   231  2.3000000000000D+00  0.0000000000000D+00  0.0000000000000D+00
   232  2.3100000000000D+00  0.0000000000000D+00  0.0000000000000D+00
   233  2.3200000000000D+00  0.0000000000000D+00  0.0000000000000D+00
   234  2.3300000000000D+00  0.0000000000000D+00  0.0000000000000D+00
   235  2.3400000000000D+00  0.0000000000000D+00  0.0000000000000D+00
   236  2.3500000000000D+00  0.0000000000000D+00  0.0000000000000D+00
   237  2.3600000000000D+00  0.0000000000000D+00  0.0000000000000D+00
   238  2.3700000000000D+00  0.0000000000000D+00  0.0000000000000D+00
   239  2.3800000000000D+00  0.0000000000000D+00  0.0000000000000D+00
   240  2.3900000000000D+00  0.0000000000000D+00  0.0000000000000D+00
   241  2.4000000000000D+00  0.0000000000000D+00  0.0000000000000D+00
   242  2.4100000000000D+00  0.0000000000000D+00  0.0000000000000D+00
   243  2.4200000000000D+00  0.0000000000000D+00  0.0000000000000D+00
   244  2.4300000000000D+00  0.0000000000000D+00  0.0000000000000D+00
   245  2.4400000000000D+00  0.0000000000000D+00  0.0000000000000D+00
   246  2.4500000000000D+00  0.0000000000000D+00  0.0000000000000D+00
   247  2.4600000000000D+00  0.0000000000000D+00  0.0000000000000D+00
   248  2.4700000000000D+00  0.0000000000000D+00  0.0000000000000D+00
   249  2.4800000000000D+00  0.0000000000000D+00  0.0000000000000D+00
   250  2.4900000000000D+00  0.0000000000000D+00  0.0000000000000D+00
   251  2.5000000000000D+00  0.0000000000000D+00  0.0000000000000D+00
   252  2.5100000000000D+00  0.0000000000000D+00  0.0000000000000D+00
   253  2.5200000000000D+00  0.0000000000000D+00  0.0000000000000D+00
   254  2.5300000000000D+00  0.0000000000000D+00  0.0000000000000D+00
   255  2.5400000000000D+00  0.0000000000000D+00  0.0000000000000D+00
   256  2.5500000000000D+00  0.0000000000000D+00  0.0000000000000D+00
   257  2.5600000000000D+00  0.0000000000000D+00  0.0000000000000D+00
   258  2.5700000000000D+00  0.0000000000000D+00  0.0000000000000D+00
   259  2.5800000000000D+00  0.0000000000000D+00  0.0000000000000D+00
   260  2.5900000000000D+00  0.0000000000000D+00  0.0000000000000D+00
   261  2.6000000000000D+00  0.0000000000000D+00  0.0000000000000D+00
   262  2.6100000000000D+00  0.0000000000000D+00  0.0000000000000D+00
   263  2.6200000000000D+00  0.0000000000000D+00  0.0000000000000D+00
   264  2.6300000000000D+00  0.0000000000000D+00  0.0000000000000D+00
   265  2.6400000000000D+00  0.0000000000000D+00  0.0000000000000D+00
   266  2.6500000000000D+00  0.0000000000000D+00  0.0000000000000D+00
   267  2.6600000000000D+00  0.0000000000000D+00  0.0000000000000D+00
   268  2.6700000000000D+00  0.0000000000000D+00  0.0000000000000D+00
   269  2.6800000000000D+00  0.0000000000000D+00  0.0000000000000D+00
   270  2.6900000000000D+00  0.0000000000000D+00  0.0000000000000D+00
   271  2.7000000000000D+00  0.0000000000000D+00  0.0000000000000D+00
   272  2.7100000000000D+00  0.0000000000000D+00  0.0000000000000D+00
   273  2.7200000000000D+00  0.0000000000000D+00  0.0000000000000D+00
   274  2.7300000000000D+00  0.0000000000000D+00  0.0000000000000D+00
   275  2.7400000000000D+00  0.0000000000000D+00  0.0000000000000D+00
   276  2.7500000000000D+00  0.0000000000000D+00  0.0000000000000D+00
   277  2.7600000000000D+00  0.0000000000000D+00  0.0000000000000D+00
   278  2.7700000000000D+00  0.0000000000000D+00  0.0000000000000D+00
   279  2.7800000000000D+00  0.0000000000000D+00  0.0000000000000D+00
   280  2.7900000000000D+00  0.0000000000000D+00  0.0000000000000D+00
   281  2.8000000000000D+00  0.0000000000000D+00  0.0000000000000D+00
   282  2.8100000000000D+00  0.0000000000000D+00  0.0000000000000D+00
   283  2.8200000000000D+00  0.0000000000000D+00  0.0000000000000D+00
   284  2.8300000000000D+00  0.0000000000000D+00  0.0000000000000D+00
   285  2.8400000000000D+00  0.0000000000000D+00  0.0000000000000D+00
   286  2.8500000000000D+00  0.0000000000000D+00  0.0000000000000D+00
   287  2.8600000000000D+00  0.0000000000000D+00  0.0000000000000D+00
   288  2.8700000000000D+00  0.0000000000000D+00  0.0000000000000D+00
   289  2.8800000000000D+00  0.0000000000000D+00  0.0000000000000D+00
   290  2.8900000000000D+00  0.0000000000000D+00  0.0000000000000D+00
   291  2.9000000000000D+00  0.0000000000000D+00  0.0000000000000D+00
   292  2.9100000000000D+00  0.0000000000000D+00  0.0000000000000D+00
   293  2.9200000000000D+00  0.0000000000000D+00  0.0000000000000D+00
   294  2.9300000000000D+00  0.0000000000000D+00  0.0000000000000D+00
   295  2.9400000000000D+00  0.0000000000000D+00  0.0000000000000D+00
   296  2.9500000000000D+00  0.0000000000000D+00  0.0000000000000D+00
   297  2.9600000000000D+00  0.0000000000000D+00  0.0000000000000D+00
   298  2.9700000000000D+00  0.0000000000000D+00  0.0000000000000D+00
   299  2.9800000000000D+00  0.0000000000000D+00  0.0000000000000D+00
   300  2.9900000000000D+00  0.0000000000000D+00  0.0000000000000D+00
   301  3.0000000000000D+00  0.0000000000000D+00  0.0000000000000D+00
   302  3.0100000000000D+00  0.0000000000000D+00  0.0000000000000D+00
   303  3.0200000000000D+00  0.0000000000000D+00  0.0000000000000D+00
   304  3.0300000000000D+00  0.0000000000000D+00  0.0000000000000D+00
   305  3.0400000000000D+00  0.0000000000000D+00  0.0000000000000D+00
   306  3.0500000000000D+00  0.0000000000000D+00  0.0000000000000D+00
   307  3.0600000000000D+00  0.0000000000000D+00  0.0000000000000D+00
   308  3.0700000000000D+00  0.0000000000000D+00  0.0000000000000D+00
   309  3.0800000000000D+00  0.0000000000000D+00  0.0000000000000D+00
   310  3.0900000000000D+00  0.0000000000000D+00  0.0000000000000D+00
   311  3.1000000000000D+00  0.0000000000000D+00  0.0000000000000D+00
   312  3.1100000000000D+00  0.0000000000000D+00  0.0000000000000D+00
   313  3.1200000000000D+00  0.0000000000000D+00  0.0000000000000D+00
   314  3.1300000000000D+00  0.0000000000000D+00  0.0000000000000D+00
   315  3.1400000000000D+00  0.0000000000000D+00  0.0000000000000D+00
   316  3.1500000000000D+00  0.0000000000000D+00  0.0000000000000D+00
   317  3.1600000000000D+00  0.0000000000000D+00  0.0000000000000D+00
   318  3.1700000000000D+00  0.0000000000000D+00  0.0000000000000D+00
   319  3.1800000000000D+00  0.0000000000000D+00  0.0000000000000D+00
   320  3.1900000000000D+00  0.0000000000000D+00  0.0000000000000D+00
   321  3.2000000000000D+00  0.0000000000000D+00  0.0000000000000D+00
   322  3.2100000000000D+00  0.0000000000000D+00  0.0000000000000D+00
   323  3.2200000000000D+00  0.0000000000000D+00  0.0000000000000D+00
   324  3.2300000000000D+00  0.0000000000000D+00  0.0000000000000D+00
   325  3.2400000000000D+00  0.0000000000000D+00  0.0000000000000D+00
   326  3.2500000000000D+00  0.0000000000000D+00  0.0000000000000D+00
   327  3.2600000000000D+00  0.0000000000000D+00  0.0000000000000D+00
   328  3.2700000000000D+00  0.0000000000000D+00  0.0000000000000D+00
   329  3.2800000000000D+00  0.0000000000000D+00  0.0000000000000D+00
   330  3.2900000000000D+00  0.0000000000000D+00  0.0000000000000D+00
   331  3.3000000000000D+00  0.0000000000000D+00  0.0000000000000D+00
   332  3.3100000000000D+00  0.0000000000000D+00  0.0000000000000D+00
   333  3.3200000000000D+00  0.0000000000000D+00  0.0000000000000D+00
   334  3.3300000000000D+00  0.0000000000000D+00  0.0000000000000D+00
   335  3.3400000000000D+00  0.0000000000000D+00  0.0000000000000D+00
   336  3.3500000000000D+00  0.0000000000000D+00  0.0000000000000D+00
   337  3.3600000000000D+00  0.0000000000000D+00  0.0000000000000D+00
   338  3.3700000000000D+00  0.0000000000000D+00  0.0000000000000D+00
   339  3.3800000000000D+00  0.0000000000000D+00  0.0000000000000D+00
   340  3.3900000000000D+00  0.0000000000000D+00  0.0000000000000D+00
   341  3.4000000000000D+00  0.0000000000000D+00  0.0000000000000D+00
   342  3.4100000000000D+00  0.0000000000000D+00  0.0000000000000D+00
   343  3.4200000000000D+00  0.0000000000000D+00  0.0000000000000D+00
   344  3.4300000000000D+00  0.0000000000000D+00  0.0000000000000D+00
   345  3.4400000000000D+00  0.0000000000000D+00  0.0000000000000D+00
   346  3.4500000000000D+00  0.0000000000000D+00  0.0000000000000D+00
   347  3.4600000000000D+00  0.0000000000000D+00  0.0000000000000D+00
   348  3.4700000000000D+00  0.0000000000000D+00  0.0000000000000D+00
   349  3.4800000000000D+00  0.0000000000000D+00  0.0000000000000D+00
   350  3.4900000000000D+00  0.0000000000000D+00  0.0000000000000D+00
   351  3.5000000000000D+00  0.0000000000000D+00  0.0000000000000D+00
   352  3.5100000000000D+00  0.0000000000000D+00  0.0000000000000D+00
   353  3.5200000000000D+00  0.0000000000000D+00  0.0000000000000D+00
   354  3.5300000000000D+00  0.0000000000000D+00  0.0000000000000D+00
   355  3.5400000000000D+00  0.0000000000000D+00  0.0000000000000D+00
   356  3.5500000000000D+00  0.0000000000000D+00  0.0000000000000D+00
   357  3.5600000000000D+00  0.0000000000000D+00  0.0000000000000D+00
   358  3.5700000000000D+00  0.0000000000000D+00  0.0000000000000D+00
   359  3.5800000000000D+00  0.0000000000000D+00  0.0000000000000D+00
   360  3.5900000000000D+00  0.0000000000000D+00  0.0000000000000D+00
   361  3.6000000000000D+00  0.0000000000000D+00  0.0000000000000D+00
   362  3.6100000000000D+00  0.0000000000000D+00  0.0000000000000D+00
   363  3.6200000000000D+00  0.0000000000000D+00  0.0000000000000D+00
   364  3.6300000000000D+00  0.0000000000000D+00  0.0000000000000D+00
   365  3.6400000000000D+00  0.0000000000000D+00  0.0000000000000D+00
   366  3.6500000000000D+00  0.0000000000000D+00  0.0000000000000D+00
   367  3.6600000000000D+00  0.0000000000000D+00  0.0000000000000D+00
   368  3.6700000000000D+00  0.0000000000000D+00  0.0000000000000D+00
   369  3.6800000000000D+00  0.0000000000000D+00  0.0000000000000D+00
   370  3.6900000000000D+00  0.0000000000000D+00  0.0000000000000D+00
   371  3.7000000000000D+00  0.0000000000000D+00  0.0000000000000D+00
   372  3.7100000000000D+00  0.0000000000000D+00  0.0000000000000D+00
   373  3.7200000000000D+00  0.0000000000000D+00  0.0000000000000D+00
   374  3.7300000000000D+00  0.0000000000000D+00  0.0000000000000D+00
   375  3.7400000000000D+00  0.0000000000000D+00  0.0000000000000D+00
   376  3.7500000000000D+00  0.0000000000000D+00  0.0000000000000D+00
   377  3.7600000000000D+00  0.0000000000000D+00  0.0000000000000D+00
   378  3.7700000000000D+00  0.0000000000000D+00  0.0000000000000D+00
   379  3.7800000000000D+00  0.0000000000000D+00  0.0000000000000D+00
   380  3.7900000000000D+00  0.0000000000000D+00  0.0000000000000D+00
   381  3.8000000000000D+00  0.0000000000000D+00  0.0000000000000D+00
   382  3.8100000000000D+00  0.0000000000000D+00  0.0000000000000D+00
   383  3.8200000000000D+00  0.0000000000000D+00  0.0000000000000D+00
   384  3.8300000000000D+00  0.0000000000000D+00  0.0000000000000D+00
   385  3.8400000000000D+00  0.0000000000000D+00  0.0000000000000D+00
   386  3.8500000000000D+00  0.0000000000000D+00  0.0000000000000D+00
   387  3.8600000000000D+00  0.0000000000000D+00  0.0000000000000D+00
   388  3.8700000000000D+00  0.0000000000000D+00  0.0000000000000D+00
   389  3.8800000000000D+00  0.0000000000000D+00  0.0000000000000D+00
   390  3.8900000000000D+00  0.0000000000000D+00  0.0000000000000D+00
   391  3.9000000000000D+00  0.0000000000000D+00  0.0000000000000D+00
   392  3.9100000000000D+00  0.0000000000000D+00  0.0000000000000D+00
   393  3.9200000000000D+00  0.0000000000000D+00  0.0000000000000D+00
   394  3.9300000000000D+00  0.0000000000000D+00  0.0000000000000D+00
   395  3.9400000000000D+00  0.0000000000000D+00  0.0000000000000D+00
   396  3.9500000000000D+00  0.0000000000000D+00  0.0000000000000D+00
   397  3.9600000000000D+00  0.0000000000000D+00  0.0000000000000D+00
   398  3.9700000000000D+00  0.0000000000000D+00  0.0000000000000D+00
   399  3.9800000000000D+00  0.0000000000000D+00  0.0000000000000D+00
   400  3.9900000000000D+00  0.0000000000000D+00  0.0000000000000D+00
   401  4.0000000000000D+00  0.0000000000000D+00  0.0000000000000D+00
   402  4.0100000000000D+00  0.0000000000000D+00  0.0000000000000D+00
   403  4.0200000000000D+00  0.0000000000000D+00  0.0000000000000D+00
   404  4.0300000000000D+00  0.0000000000000D+00  0.0000000000000D+00
   405  4.0400000000000D+00  0.0000000000000D+00  0.0000000000000D+00
   406  4.0500000000000D+00  0.0000000000000D+00  0.0000000000000D+00
   407  4.0600000000000D+00  0.0000000000000D+00  0.0000000000000D+00
   408  4.0700000000000D+00  0.0000000000000D+00  0.0000000000000D+00
   409  4.0800000000000D+00  0.0000000000000D+00  0.0000000000000D+00
   410  4.0900000000000D+00  0.0000000000000D+00  0.0000000000000D+00
   411  4.1000000000000D+00  0.0000000000000D+00  0.0000000000000D+00
   412  4.1100000000000D+00  0.0000000000000D+00  0.0000000000000D+00
   413  4.1200000000000D+00  0.0000000000000D+00  0.0000000000000D+00
   414  4.1300000000000D+00  0.0000000000000D+00  0.0000000000000D+00
   415  4.1400000000000D+00  0.0000000000000D+00  0.0000000000000D+00
   416  4.1500000000000D+00  0.0000000000000D+00  0.0000000000000D+00
   417  4.1600000000000D+00  0.0000000000000D+00  0.0000000000000D+00
   418  4.1700000000000D+00  0.0000000000000D+00  0.0000000000000D+00
   419  4.1800000000000D+00  0.0000000000000D+00  0.0000000000000D+00
   420  4.1900000000000D+00  0.0000000000000D+00  0.0000000000000D+00
   421  4.2000000000000D+00  0.0000000000000D+00  0.0000000000000D+00
   422  4.2100000000000D+00  0.0000000000000D+00  0.0000000000000D+00