P     ONCVPSP-3.3.1  r_core=   2.62098   1.72641
     15.0000      5.0000      210904    zatom,zion,pspd
     8      11   1     4   600     0    pspcod,pspxc,lmax,lloc,mmax,r2well
  5.99000000  0.00000000  0.00000000    rchrg fchrg qchrg
     2     3     0     0    nproj
     3     1           extension_switch
     4     0     0    nprojso
   0                         5.3686154686715D-01  8.6456062978321D+00
     1  0.0000000000000D+00  1.9847123944317D-11  2.0840940084810D-11
     2  1.0000000000000D-02 -5.3721852744267D-02  3.5450849100752D-02
     3  2.0000000000000D-02 -1.0728082494238D-01  7.0894183069183D-02
     4  3.0000000000000D-02 -1.6051451373316D-01  1.0632234438527D-01
     5  4.0000000000000D-02 -2.1326147025337D-01  1.4172739175825D-01
     6  5.0000000000000D-02 -2.6536167321171D-01  1.7710096074755D-01
     7  6.0000000000000D-02 -3.1665699836693D-01  2.1243412737665D-01
     8  7.0000000000000D-02 -3.6699168256820D-01  2.4771727571292D-01
     9  8.0000000000000D-02 -4.1621278103545D-01  2.8293997036573D-01
    10  9.0000000000000D-02 -4.6417061658218D-01  3.1809083482932D-01
    11  1.0000000000000D-01 -5.1071921951167D-01  3.5315743656583D-01
    12  1.1000000000000D-01 -5.5571675695071D-01  3.8812617968844D-01
    13  1.2000000000000D-01 -5.9902595042211D-01  4.2298220606434D-01
    14  1.3000000000000D-01 -6.4051448049738D-01  4.5770930561213D-01
    15  1.4000000000000D-01 -6.8005537741508D-01  4.9228983651962D-01
    16  1.5000000000000D-01 -7.1752739659719D-01  5.2670465605449D-01
    17  1.6000000000000D-01 -7.5281537804460D-01  5.6093306258343D-01
    18  1.7000000000000D-01 -7.8581058864506D-01  5.9495274935496D-01
    19  1.8000000000000D-01 -8.1641104647944D-01  6.2873977053668D-01
    20  1.9000000000000D-01 -8.4452182626728D-01  6.6226851993146D-01
    21  2.0000000000000D-01 -8.7005534514772D-01  6.9551172272663D-01
    22  2.1000000000000D-01 -8.9293162804830D-01  7.2844044055853D-01
    23  2.2000000000000D-01 -9.1307855195032D-01  7.6102409010040D-01
    24  2.3000000000000D-01 -9.3043206841538D-01  7.9323047530520D-01
    25  2.4000000000000D-01 -9.4493640379327D-01  8.2502583335805D-01
    26  2.5000000000000D-01 -9.5654423658584D-01  8.5637489431363D-01
    27  2.6000000000000D-01 -9.6521685149502D-01  8.8724095431544D-01
    28  2.7000000000000D-01 -9.7092426973460D-01  9.1758596221333D-01
    29  2.8000000000000D-01 -9.7364535523571D-01  9.4737061931689D-01
    30  2.9000000000000D-01 -9.7336789642383D-01  9.7655449194259D-01
    31  3.0000000000000D-01 -9.7008866329124D-01  1.0050961363346D+00
    32  3.1000000000000D-01 -9.6381343953238D-01  1.0329532354617D+00
    33  3.2000000000000D-01 -9.5455702955104D-01  1.0600827471180D+00
    34  3.3000000000000D-01 -9.4234324018730D-01  1.0864410626800D+00
    35  3.4000000000000D-01 -9.2720483704869D-01  1.1119841758036D+00
    36  3.5000000000000D-01 -9.0918347536506D-01  1.1366678602738D+00
    37  3.6000000000000D-01 -8.8832960531815D-01  1.1604478561573D+00
    38  3.7000000000000D-01 -8.6470235182812D-01  1.1832800633434D+00
    39  3.8000000000000D-01 -8.3836936880776D-01  1.2051207415022D+00
    40  3.9000000000000D-01 -8.0940666792266D-01  1.2259267154368D+00
    41  4.0000000000000D-01 -7.7789842192175D-01  1.2456555847530D+00
    42  4.1000000000000D-01 -7.4393674262898D-01  1.2642659367295D+00
    43  4.2000000000000D-01 -7.0762143371210D-01  1.2817175612305D+00
    44  4.3000000000000D-01 -6.6905971837035D-01  1.2979716664679D+00
    45  4.4000000000000D-01 -6.2836594211014D-01  1.3129910943942D+00
    46  4.5000000000000D-01 -5.8566125080527D-01  1.3267405344835D+00
    47  4.6000000000000D-01 -5.4107324426874D-01  1.3391867346418D+00
    48  4.7000000000000D-01 -4.9473560559579D-01  1.3502987079796D+00
    49  4.8000000000000D-01 -4.4678770657374D-01  1.3600479341738D+00
    50  4.9000000000000D-01 -3.9737418949350D-01  1.3684085541521D+00
    51  5.0000000000000D-01 -3.4664452574272D-01  1.3753575568420D+00
    52  5.1000000000000D-01 -2.9475255160932D-01  1.3808749567438D+00
    53  5.2000000000000D-01 -2.4185598177972D-01  1.3849439611095D+00
    54  5.3000000000000D-01 -1.8811590107767D-01  1.3875511255453D+00
    55  5.4000000000000D-01 -1.3369623505868D-01  1.3886864968855D+00
    56  5.5000000000000D-01 -7.8763200151620D-02  1.3883437422400D+00
    57  5.6000000000000D-01 -2.3484734123337D-02  1.3865202631601D+00
    58  5.7000000000000D-01  3.1970092263355D-02  1.3832172939338D+00
    59  5.8000000000000D-01  8.7431681425898D-02  1.3784399830816D+00
    60  5.9000000000000D-01  1.4273053188694D-01  1.3721974571979D+00
    61  6.0000000000000D-01  1.9769787674012D-01  1.3645028663628D+00
    62  6.1000000000000D-01  2.5216633631568D-01  1.3553734104286D+00
    63  6.2000000000000D-01  3.0597058356147D-01  1.3448303455817D+00
    64  6.3000000000000D-01  3.5894802050040D-01  1.3328989706697D+00
    65  6.4000000000000D-01  4.1093946396032D-01  1.3196085928913D+00
    66  6.5000000000000D-01  4.6178983859652D-01  1.3049924725452D+00
    67  6.6000000000000D-01  5.1134887503997D-01  1.2890877466517D+00
    68  6.7000000000000D-01  5.5947181080778D-01  1.2719353313699D+00
    69  6.8000000000000D-01  6.0602009140507D-01  1.2535798032539D+00
    70  6.9000000000000D-01  6.5086206882934D-01  1.2340692595144D+00
    71  7.0000000000000D-01  6.9387369446343D-01  1.2134551575728D+00
    72  7.1000000000000D-01  7.3493920310668D-01  1.1917921343255D+00
    73  7.2000000000000D-01  7.7395178465196D-01  1.1691378056619D+00
    74  7.3000000000000D-01  8.1081423966435D-01  1.1455525469107D+00
    75  7.4000000000000D-01  8.4543961486197D-01  1.1210992550206D+00
    76  7.5000000000000D-01  8.7775181423647D-01  1.0958430934084D+00
    77  7.6000000000000D-01  9.0768618128409D-01  1.0698512205443D+00
    78  7.7000000000000D-01  9.3519004755033D-01  1.0431925034662D+00
    79  7.8000000000000D-01  9.6022324241762D-01  1.0159372175500D+00
    80  7.9000000000000D-01  9.8275855879545D-01  9.8815673398242D-01
    81  8.0000000000000D-01  1.0027821691006D+00  9.5992319651117D-01
    82  8.1000000000000D-01  1.0202939856462D+00  9.3130918916350D-01
    83  8.2000000000000D-01  1.0353079592954D+00  9.0238739674264D-01
    84  8.3000000000000D-01  1.0478523099725D+00  8.7323026002214D-01
    85  8.4000000000000D-01  1.0579696823773D+00  8.4390962766546D-01
    86  8.5000000000000D-01  1.0657172199992D+00  8.1449640699949D-01
    87  8.6000000000000D-01  1.0711665502997D+00  7.8506021586573D-01
    88  8.7000000000000D-01  1.0744036737066D+00  7.5566903786230D-01
    89  8.8000000000000D-01  1.0755287488586D+00  7.2638888337126D-01
    90  8.9000000000000D-01  1.0746557663457D+00  6.9728345884089D-01
    91  9.0000000000000D-01  1.0719121030162D+00  6.6841384685877D-01
    92  9.1000000000000D-01  1.0674379487647D+00  6.3983819961014D-01
    93  9.2000000000000D-01  1.0613855975807D+00  6.1161144836605D-01
    94  9.3000000000000D-01  1.0539185945200D+00  5.8378503168641D-01
    95  9.4000000000000D-01  1.0452107301749D+00  5.5640664505510D-01
    96  9.5000000000000D-01  1.0354448741492D+00  5.2952001468622D-01
    97  9.6000000000000D-01  1.0248116390036D+00  5.0316469825327D-01
    98  9.7000000000000D-01  1.0135078661287D+00  4.7737591529563D-01
    99  9.8000000000000D-01  1.0017349250101D+00  4.5218441004937D-01
   100  9.9000000000000D-01  9.8969681740257D-01  4.2761634943187D-01
   101  1.0000000000000D+00  9.7759807799915D-01  4.0369325888216D-01
   102  1.0100000000000D+00  9.6564146328888D-01  3.8043199872085D-01
   103  1.0200000000000D+00  9.5402542043330D-01  3.5784478364633D-01
   104  1.0300000000000D+00  9.4294132816488D-01  3.3593924792355D-01
   105  1.0400000000000D+00  9.3257050190315D-01  3.1471855875769D-01
   106  1.0500000000000D+00  9.2308095552485D-01  2.9418158026444D-01
   107  1.0600000000000D+00  9.1462391249178D-01  2.7432309036147D-01
   108  1.0700000000000D+00  9.0733005933250D-01  2.5513405281124D-01
   109  1.0800000000000D+00  9.0130553682898D-01  2.3660194664371D-01
   110  1.0900000000000D+00  8.9662771401274D-01  2.1871115715921D-01
   111  1.1000000000000D+00  8.9334009061287D-01  2.0144340007637D-01
   112  1.1100000000000D+00  8.9144920463366D-01  1.8477832003890D-01
   113  1.1200000000000D+00  8.9091763057270D-01  1.6869397860646D-01
   114  1.1300000000000D+00  8.9164490527096D-01  1.5316678194688D-01
   115  1.1400000000000D+00  8.9346496981532D-01  1.3817271043136D-01
   116  1.1500000000000D+00  8.9615717101672D-01  1.2368900567272D-01
   117  1.1600000000000D+00  8.9946575013062D-01  1.0969582371380D-01
   118  1.1700000000000D+00  9.0311815718464D-01  9.6177222057661D-02
   119  1.1800000000000D+00  9.0684244500157D-01  8.3121629666841D-02
   120  1.1900000000000D+00  9.1038186734099D-01  7.0521825985559D-02
   121  1.2000000000000D+00  9.1350589434971D-01  5.8374525424821D-02
   122  1.2100000000000D+00  9.1601723564487D-01  4.6679693876807D-02
   123  1.2200000000000D+00  9.1775522507793D-01  3.5439731737417D-02
   124  1.2300000000000D+00  9.1859611901186D-01  2.4658623974106D-02
   125  1.2400000000000D+00  9.1845100652620D-01  1.4341144273637D-02
   126  1.2500000000000D+00  9.1726220080081D-01  4.4921707150364D-03
   127  1.2600000000000D+00  9.1499876401991D-01 -4.8838700430358D-03
   128  1.2700000000000D+00  9.1165174139643D-01 -1.3783417773254D-02
   129  1.2800000000000D+00  9.0722959038495D-01 -2.2204063442839D-02
   130  1.2900000000000D+00  9.0175398836375D-01 -3.0144725044695D-02
   131  1.3000000000000D+00  8.9525621899881D-01 -3.7605731451695D-02
   132  1.3100000000000D+00  8.8777419125942D-01 -4.4588839527105D-02
   133  1.3200000000000D+00  8.7935004014898D-01 -5.1097201047376D-02
   134  1.3300000000000D+00  8.7002829231544D-01 -5.7135296737375D-02
   135  1.3400000000000D+00  8.5985449860543D-01 -6.2708851135917D-02
   136  1.3500000000000D+00  8.4887426360646D-01 -6.7824735366109D-02
   137  1.3600000000000D+00  8.3713259226885D-01 -7.2490867500565D-02
   138  1.3700000000000D+00  8.2467347639349D-01 -7.6716113345893D-02
   139  1.3800000000000D+00  8.1153967257264D-01 -8.0510190505352D-02
   140  1.3900000000000D+00  7.9777260768686D-01 -8.3883578931857D-02
   141  1.4000000000000D+00  7.8341238639220D-01 -8.6847436891227D-02
   142  1.4100000000000D+00  7.6849785711865D-01 -8.9413523685338D-02
   143  1.4200000000000D+00  7.5306671677640D-01 -9.1594128518528D-02
   144  1.4300000000000D+00  7.3715564165623D-01 -9.3402005099276D-02
   145  1.4400000000000D+00  7.2080042053221D-01 -9.4850311548687D-02
   146  1.4500000000000D+00  7.0403609092589D-01 -9.5952554898761D-02
   147  1.4600000000000D+00  6.8689706524375D-01 -9.6722539706566D-02
   148  1.4700000000000D+00  6.6941724490415D-01 -9.7174320128096D-02
   149  1.4800000000000D+00  6.5163012031891D-01 -9.7322155097257D-02
   150  1.4900000000000D+00  6.3356885268569D-01 -9.7180465955195D-02
   151  1.5000000000000D+00  6.1526633999278D-01 -9.6763796386150D-02
   152  1.5100000000000D+00  5.9675526451548D-01 -9.6086774097503D-02
   153  1.5200000000000D+00  5.7806812423952D-01 -9.5164074155759D-02
   154  1.5300000000000D+00  5.5923724785728D-01 -9.4010383647708D-02
   155  1.5400000000000D+00  5.4029479497776D-01 -9.2640367527214D-02
   156  1.5500000000000D+00  5.2127274259580D-01 -9.1068635559040D-02
   157  1.5600000000000D+00  5.0220285917041D-01 -8.9309710171575D-02
   158  1.5700000000000D+00  4.8311666774646D-01 -8.7377995305176D-02
   159  1.5800000000000D+00  4.6404539956951D-01 -8.5287746060952D-02
   160  1.5900000000000D+00  4.4501993948186D-01 -8.3053039320535D-02
   161  1.6000000000000D+00  4.2607076475786D-01 -8.0687745197479D-02
   162  1.6100000000000D+00  4.0722787837925D-01 -7.8205499485818D-02
   163  1.6200000000000D+00  3.8852073844324D-01 -7.5619677052101D-02
   164  1.6300000000000D+00  3.6997818452517D-01 -7.2943366300507D-02
   165  1.6400000000000D+00  3.5162836255297D-01 -7.0189344724487D-02
   166  1.6500000000000D+00  3.3349864889204D-01 -6.7370055643904D-02
   167  1.6600000000000D+00  3.1561557496923D-01 -6.4497586175699D-02
   168  1.6700000000000D+00  2.9800475304881D-01 -6.1583646517042D-02
   169  1.6800000000000D+00  2.8069080424807D-01 -5.8639550600813D-02
   170  1.6900000000000D+00  2.6369728929442D-01 -5.5676198185175D-02
   171  1.7000000000000D+00  2.4704664290835D-01 -5.2704058436768D-02
   172  1.7100000000000D+00  2.3076011216598D-01 -4.9733155049901D-02
   173  1.7200000000000D+00  2.1485769957962D-01 -4.6773052957430D-02
   174  1.7300000000000D+00  1.9935811106516D-01 -4.3832846650350D-02
   175  1.7400000000000D+00  1.8427870946328D-01 -4.0921150162039D-02
   176  1.7500000000000D+00  1.6963547354461D-01 -3.8046088698383D-02
   177  1.7600000000000D+00  1.5544296315818D-01 -3.5215291977430D-02
   178  1.7700000000000D+00  1.4171429019521D-01 -3.2435889215465D-02
   179  1.7800000000000D+00  1.2846109607853D-01 -2.9714505840176D-02
   180  1.7900000000000D+00  1.1569353516329D-01 -2.7057261814507D-02
   181  1.8000000000000D+00  1.0342026483979D-01 -2.4469771675440D-02
   182  1.8100000000000D+00  9.1648441459875D-02 -2.1957146116656D-02
   183  1.8200000000000D+00  8.0383722942120D-02 -1.9523995240557D-02
   184  1.8300000000000D+00  6.9630277020760D-02 -1.7174433272060D-02
   185  1.8400000000000D+00  5.9390795882496D-02 -1.4912084847357D-02
   186  1.8500000000000D+00  4.9666516264454D-02 -1.2740092683458D-02
   187  1.8600000000000D+00  4.0457245401751D-02 -1.0661126680560D-02
   188  1.8700000000000D+00  3.1761392200830D-02 -8.6773943169960D-03
   189  1.8800000000000D+00  2.3576003609374D-02 -6.7906523100246D-03
   190  1.8900000000000D+00  1.5896805872592D-02 -5.0022194621742D-03
   191  1.9000000000000D+00  8.7182502704883D-03 -3.3129905945179D-03
   192  1.9100000000000D+00  2.0335632753561D-03 -1.7234515338457D-03
   193  1.9200000000000D+00 -4.1651995247438D-03 -2.3369500931250D-04
   194  1.9300000000000D+00 -9.8870956926438D-03  1.1565625584649D-03
   195  1.9400000000000D+00 -1.5142235080773D-02  2.4479635201743D-03
   196  1.9500000000000D+00 -1.9941715951181D-02  3.6414907622343D-03
   197  1.9600000000000D+00 -2.4297558557634D-02  4.7384488772414D-03
   198  1.9700000000000D+00 -2.8222636520049D-02  5.7404448289193D-03
   199  1.9800000000000D+00 -3.1730606338196D-02  6.6493681980923D-03
   200  1.9900000000000D+00 -3.4835835410194D-02  7.4673710898160D-03
   201  2.0000000000000D+00 -3.7553328984261D-02  8.1968478207249D-03
   202  2.0100000000000D+00 -3.9898656245144D-02  8.8404144179367D-03
   203  2.0200000000000D+00 -4.1887876118931D-02  9.4008880854014D-03
   204  2.0300000000000D+00 -4.3537462928592D-02  9.8812666589338D-03
   205  2.0400000000000D+00 -4.4864232336246D-02  1.0284708157455D-02
   206  2.0500000000000D+00 -4.5885268042992D-02  1.0614510546605D-02
   207  2.0600000000000D+00 -4.6617849123799D-02  1.0874091674792D-02
   208  2.0700000000000D+00 -4.7079379012068D-02  1.1066969635325D-02
   209  2.0800000000000D+00 -4.7287315683605D-02  1.1196743435413D-02
   210  2.0900000000000D+00 -4.7259103830796D-02  1.1267074165407D-02
   211  2.1000000000000D+00 -4.7012109254208D-02  1.1281666720381D-02
   212  2.1100000000000D+00 -4.6563555177871D-02  1.1244251999933D-02
   213  2.1200000000000D+00 -4.5930461758503D-02  1.1158569890387D-02
   214  2.1300000000000D+00 -4.5129587846144D-02  1.1028352801728D-02
   215  2.1400000000000D+00 -4.4177375998642D-02  1.0857309996441D-02
   216  2.1500000000000D+00 -4.3089900849479D-02  1.0649112732091D-02
   217  2.1600000000000D+00 -4.1882820175988D-02  1.0407380064241D-02
   218  2.1700000000000D+00 -4.0571330288287D-02  1.0135665686312D-02
   219  2.1800000000000D+00 -3.9170124339327D-02  9.8374454812884D-03
   220  2.1900000000000D+00 -3.7693354491263D-02  9.5161060008712D-03
   221  2.2000000000000D+00 -3.6154598205858D-02  9.1749339326155D-03
   222  2.2100000000000D+00 -3.4566827587266D-02  8.8171063110240D-03
   223  2.2200000000000D+00 -3.2942383349879D-02  8.4456818291833D-03
   224  2.2300000000000D+00 -3.1292952266667D-02  8.0635929918765D-03
   225  2.2400000000000D+00 -2.9629548184905D-02  7.6736391302966D-03
   226  2.2500000000000D+00 -2.7962497590191D-02  7.2784804971614D-03
   227  2.2600000000000D+00 -2.6301428179432D-02  6.8806330991736D-03
   228  2.2700000000000D+00 -2.4655261487672D-02  6.4824644987301D-03
   229  2.2800000000000D+00 -2.3032209330647D-02  6.0861905323094D-03
   230  2.2900000000000D+00 -2.1439773093557D-02  5.6938727278882D-03
   231  2.3000000000000D+00 -1.9884747100075D-02  5.3074166996529D-03
   232  2.3100000000000D+00 -1.8373224938169D-02  4.9285712655928D-03
   233  2.3200000000000D+00 -1.6910608327929D-02  4.5589282179511D-03
   234  2.3300000000000D+00 -1.5501620005468D-02  4.1999230161729D-03
   235  2.3400000000000D+00 -1.4150318844743D-02  3.8528360462653D-03
   236  2.3500000000000D+00 -1.2860117560069D-02  3.5187945246610D-03
   237  2.3600000000000D+00 -1.1633802378815D-02  3.1987749613230D-03
   238  2.3700000000000D+00 -1.0473553871418D-02  2.8936060012358D-03
   239  2.3800000000000D+00 -9.3809713805519D-03  2.6039720106656D-03
   240  2.3900000000000D+00 -8.3570992248424D-03  2.3304171236756D-03
   241  2.4000000000000D+00 -7.4024556529178D-03  2.0733498535175D-03
   242  2.4100000000000D+00 -6.5170597450405D-03  1.8330475933614D-03
   243  2.4200000000000D+00 -5.7004605853276D-03  1.6096615843558D-03
   244  2.4300000000000D+00 -4.9517652829224D-03  1.4032218622740D-03
   245  2.4400000000000D+00 -4.2696710941041D-03  1.2136428818963D-03
   246  2.4500000000000D+00 -3.6524957939783D-03  1.0407289930922D-03
   247  2.4600000000000D+00 -3.0982098330103D-03  8.8418026916887D-04
   248  2.4700000000000D+00 -2.6044655446800D-03  7.4359793827521D-04
   249  2.4800000000000D+00 -2.1686274550705D-03  6.1849003226130D-04
   250  2.4900000000000D+00 -1.7878017359312D-03  5.0827696958004D-04
   251  2.5000000000000D+00 -1.4588645444939D-03  4.1229692650014D-04
   252  2.5100000000000D+00 -1.1784894045058D-03  3.2981110295629D-04
   253  2.5200000000000D+00 -9.4317385679960D-04  2.6000889893786D-04
   254  2.5300000000000D+00 -7.4930876054980D-04  2.0201988692470D-04
   255  2.5400000000000D+00 -5.9333808861927D-04  1.5494036773747D-04
   256  2.5500000000000D+00 -4.7077914135077D-04  1.1767654663840D-04
   257  2.5600000000000D+00 -3.7731629241518D-04  8.9116754141628D-05
   258  2.5700000000000D+00 -3.0703544270424D-04  6.7819710897300D-05
   259  2.5800000000000D+00 -2.6120435956197D-04  5.3584213957503D-05
   260  2.5900000000000D+00 -2.3713244132009D-04  4.5464294640646D-05
   261  2.6000000000000D+00 -2.3761433150929D-04  4.3519259641616D-05
   262  2.6100000000000D+00 -2.3684401275642D-04  4.2531620305008D-05
   263  2.6200000000000D+00 -2.1876154834552D-04  3.9120056552930D-05
   264  2.6300000000000D+00 -1.5940271812942D-04  2.8492977067042D-05
   265  2.6400000000000D+00 -8.3817758980017D-05  1.5001235926191D-05
   266  2.6500000000000D+00 -1.3866414654563D-05  2.4864885997794D-06
   267  2.6600000000000D+00  1.8796258523675D-05 -3.3457125962182D-06
   268  2.6700000000000D+00  2.1176043878676D-05 -3.7695185833796D-06
   269  2.6800000000000D+00  7.4821337136349D-06 -1.3321019203306D-06
   270  2.6900000000000D+00 -3.1495099560611D-06  5.5805872883349D-07
   271  2.7000000000000D+00 -5.0712644016435D-06  8.9818624028324D-07
   272  2.7100000000000D+00 -2.7338295312550D-06  4.8402115982109D-07
   273  2.7200000000000D+00  2.3508635651688D-07 -4.2041519885524D-08
   274  2.7300000000000D+00  6.0138255590905D-07 -1.0754786903698D-07
   275  2.7400000000000D+00  4.4706396918260D-07 -7.9950402179730D-08
   276  2.7500000000000D+00  0.0000000000000D+00  0.0000000000000D+00
   277  2.7600000000000D+00  0.0000000000000D+00  0.0000000000000D+00
   278  2.7700000000000D+00  0.0000000000000D+00  0.0000000000000D+00
   279  2.7800000000000D+00  0.0000000000000D+00  0.0000000000000D+00
   280  2.7900000000000D+00  0.0000000000000D+00  0.0000000000000D+00
   281  2.8000000000000D+00  0.0000000000000D+00  0.0000000000000D+00
   282  2.8100000000000D+00  0.0000000000000D+00  0.0000000000000D+00
   283  2.8200000000000D+00  0.0000000000000D+00  0.0000000000000D+00
   284  2.8300000000000D+00  0.0000000000000D+00  0.0000000000000D+00
   285  2.8400000000000D+00  0.0000000000000D+00  0.0000000000000D+00
   286  2.8500000000000D+00  0.0000000000000D+00  0.0000000000000D+00
   287  2.8600000000000D+00  0.0000000000000D+00  0.0000000000000D+00
   288  2.8700000000000D+00  0.0000000000000D+00  0.0000000000000D+00
   289  2.8800000000000D+00  0.0000000000000D+00  0.0000000000000D+00
   290  2.8900000000000D+00  0.0000000000000D+00  0.0000000000000D+00
   291  2.9000000000000D+00  0.0000000000000D+00  0.0000000000000D+00
   292  2.9100000000000D+00  0.0000000000000D+00  0.0000000000000D+00
   293  2.9200000000000D+00  0.0000000000000D+00  0.0000000000000D+00
   294  2.9300000000000D+00  0.0000000000000D+00  0.0000000000000D+00
   295  2.9400000000000D+00  0.0000000000000D+00  0.0000000000000D+00
   296  2.9500000000000D+00  0.0000000000000D+00  0.0000000000000D+00
   297  2.9600000000000D+00  0.0000000000000D+00  0.0000000000000D+00
   298  2.9700000000000D+00  0.0000000000000D+00  0.0000000000000D+00
   299  2.9800000000000D+00  0.0000000000000D+00  0.0000000000000D+00
   300  2.9900000000000D+00  0.0000000000000D+00  0.0000000000000D+00
   301  3.0000000000000D+00  0.0000000000000D+00  0.0000000000000D+00
   302  3.0100000000000D+00  0.0000000000000D+00  0.0000000000000D+00
   303  3.0200000000000D+00  0.0000000000000D+00  0.0000000000000D+00
   304  3.0300000000000D+00  0.0000000000000D+00  0.0000000000000D+00
   305  3.0400000000000D+00  0.0000000000000D+00  0.0000000000000D+00
   306  3.0500000000000D+00  0.0000000000000D+00  0.0000000000000D+00
   307  3.0600000000000D+00  0.0000000000000D+00  0.0000000000000D+00
   308  3.0700000000000D+00  0.0000000000000D+00  0.0000000000000D+00
   309  3.0800000000000D+00  0.0000000000000D+00  0.0000000000000D+00
   310  3.0900000000000D+00  0.0000000000000D+00  0.0000000000000D+00
   311  3.1000000000000D+00  0.0000000000000D+00  0.0000000000000D+00
   312  3.1100000000000D+00  0.0000000000000D+00  0.0000000000000D+00
   313  3.1200000000000D+00  0.0000000000000D+00  0.0000000000000D+00
   314  3.1300000000000D+00  0.0000000000000D+00  0.0000000000000D+00
   315  3.1400000000000D+00  0.0000000000000D+00  0.0000000000000D+00
   316  3.1500000000000D+00  0.0000000000000D+00  0.0000000000000D+00
   317  3.1600000000000D+00  0.0000000000000D+00  0.0000000000000D+00
   318  3.1700000000000D+00  0.0000000000000D+00  0.0000000000000D+00
   319  3.1800000000000D+00  0.0000000000000D+00  0.0000000000000D+00
   320  3.1900000000000D+00  0.0000000000000D+00  0.0000000000000D+00
   321  3.2000000000000D+00  0.0000000000000D+00  0.0000000000000D+00
   322  3.2100000000000D+00  0.0000000000000D+00  0.0000000000000D+00
   323  3.2200000000000D+00  0.0000000000000D+00  0.0000000000000D+00
   324  3.2300000000000D+00  0.0000000000000D+00  0.0000000000000D+00
   325  3.2400000000000D+00  0.0000000000000D+00  0.0000000000000D+00
   326  3.2500000000000D+00  0.0000000000000D+00  0.0000000000000D+00
   327  3.2600000000000D+00  0.0000000000000D+00  0.0000000000000D+00
   328  3.2700000000000D+00  0.0000000000000D+00  0.0000000000000D+00
   329  3.2800000000000D+00  0.0000000000000D+00  0.0000000000000D+00
   330  3.2900000000000D+00  0.0000000000000D+00  0.0000000000000D+00
   331  3.3000000000000D+00  0.0000000000000D+00  0.0000000000000D+00
   332  3.3100000000000D+00  0.0000000000000D+00  0.0000000000000D+00
   333  3.3200000000000D+00  0.0000000000000D+00  0.0000000000000D+00
   334  3.3300000000000D+00  0.0000000000000D+00  0.0000000000000D+00
   335  3.3400000000000D+00  0.0000000000000D+00  0.0000000000000D+00
   336  3.3500000000000D+00  0.0000000000000D+00  0.0000000000000D+00
   337  3.3600000000000D+00  0.0000000000000D+00  0.0000000000000D+00
   338  3.3700000000000D+00  0.0000000000000D+00  0.0000000000000D+00
   339  3.3800000000000D+00  0.0000000000000D+00  0.0000000000000D+00
   340  3.3900000000000D+00  0.0000000000000D+00  0.0000000000000D+00
   341  3.4000000000000D+00  0.0000000000000D+00  0.0000000000000D+00
   342  3.4100000000000D+00  0.0000000000000D+00  0.0000000000000D+00
   343  3.4200000000000D+00  0.0000000000000D+00  0.0000000000000D+00
   344  3.4300000000000D+00  0.0000000000000D+00  0.0000000000000D+00
   345  3.4400000000000D+00  0.0000000000000D+00  0.0000000000000D+00
   346  3.4500000000000D+00  0.0000000000000D+00  0.0000000000000D+00
   347  3.4600000000000D+00  0.0000000000000D+00  0.0000000000000D+00
   348  3.4700000000000D+00  0.0000000000000D+00  0.0000000000000D+00
   349  3.4800000000000D+00  0.0000000000000D+00  0.0000000000000D+00
   350  3.4900000000000D+00  0.0000000000000D+00  0.0000000000000D+00
   351  3.5000000000000D+00  0.0000000000000D+00  0.0000000000000D+00
   352  3.5100000000000D+00  0.0000000000000D+00  0.0000000000000D+00
   353  3.5200000000000D+00  0.0000000000000D+00  0.0000000000000D+00
   354  3.5300000000000D+00  0.0000000000000D+00  0.0000000000000D+00
   355  3.5400000000000D+00  0.0000000000000D+00  0.0000000000000D+00
   356  3.5500000000000D+00  0.0000000000000D+00  0.0000000000000D+00
   357  3.5600000000000D+00  0.0000000000000D+00  0.0000000000000D+00
   358  3.5700000000000D+00  0.0000000000000D+00  0.0000000000000D+00
   359  3.5800000000000D+00  0.0000000000000D+00  0.0000000000000D+00
   360  3.5900000000000D+00  0.0000000000000D+00  0.0000000000000D+00
   361  3.6000000000000D+00  0.0000000000000D+00  0.0000000000000D+00
   362  3.6100000000000D+00  0.0000000000000D+00  0.0000000000000D+00
   363  3.6200000000000D+00  0.0000000000000D+00  0.0000000000000D+00
   364  3.6300000000000D+00  0.0000000000000D+00  0.0000000000000D+00
   365  3.6400000000000D+00  0.0000000000000D+00  0.0000000000000D+00
   366  3.6500000000000D+00  0.0000000000000D+00  0.0000000000000D+00
   367  3.6600000000000D+00  0.0000000000000D+00  0.0000000000000D+00
   368  3.6700000000000D+00  0.0000000000000D+00  0.0000000000000D+00
   369  3.6800000000000D+00  0.0000000000000D+00  0.0000000000000D+00
   370  3.6900000000000D+00  0.0000000000000D+00  0.0000000000000D+00
   371  3.7000000000000D+00  0.0000000000000D+00  0.0000000000000D+00
   372  3.7100000000000D+00  0.0000000000000D+00  0.0000000000000D+00
   373  3.7200000000000D+00  0.0000000000000D+00  0.0000000000000D+00
   374  3.7300000000000D+00  0.0000000000000D+00  0.0000000000000D+00
   375  3.7400000000000D+00  0.0000000000000D+00  0.0000000000000D+00
   376  3.7500000000000D+00  0.0000000000000D+00  0.0000000000000D+00
   377  3.7600000000000D+00  0.0000000000000D+00  0.0000000000000D+00
   378  3.7700000000000D+00  0.0000000000000D+00  0.0000000000000D+00
   379  3.7800000000000D+00  0.0000000000000D+00  0.0000000000000D+00
   380  3.7900000000000D+00  0.0000000000000D+00  0.0000000000000D+00
   381  3.8000000000000D+00  0.0000000000000D+00  0.0000000000000D+00
   382  3.8100000000000D+00  0.0000000000000D+00  0.0000000000000D+00
   383  3.8200000000000D+00  0.0000000000000D+00  0.0000000000000D+00
   384  3.8300000000000D+00  0.0000000000000D+00  0.0000000000000D+00
   385  3.8400000000000D+00  0.0000000000000D+00  0.0000000000000D+00
   386  3.8500000000000D+00  0.0000000000000D+00  0.0000000000000D+00
   387  3.8600000000000D+00  0.0000000000000D+00  0.0000000000000D+00
   388  3.8700000000000D+00  0.0000000000000D+00  0.0000000000000D+00
   389  3.8800000000000D+00  0.0000000000000D+00  0.0000000000000D+00
   390  3.8900000000000D+00  0.0000000000000D+00  0.0000000000000D+00
   391  3.9000000000000D+00  0.0000000000000D+00  0.0000000000000D+00
   392  3.9100000000000D+00  0.0000000000000D+00  0.0000000000000D+00
   393  3.9200000000000D+00  0.0000000000000D+00  0.0000000000000D+00
   394  3.9300000000000D+00  0.0000000000000D+00  0.0000000000000D+00
   395  3.9400000000000D+00  0.0000000000000D+00  0.0000000000000D+00
   396  3.9500000000000D+00  0.0000000000000D+00  0.0000000000000D+00
   397  3.9600000000000D+00  0.0000000000000D+00  0.0000000000000D+00
   398  3.9700000000000D+00  0.0000000000000D+00  0.0000000000000D+00
   399  3.9800000000000D+00  0.0000000000000D+00  0.0000000000000D+00
   400  3.9900000000000D+00  0.0000000000000D+00  0.0000000000000D+00
   401  4.0000000000000D+00  0.0000000000000D+00  0.0000000000000D+00
   402  4.0100000000000D+00  0.0000000000000D+00  0.0000000000000D+00
   403  4.0200000000000D+00  0.0000000000000D+00  0.0000000000000D+00
   404  4.0300000000000D+00  0.0000000000000D+00  0.0000000000000D+00
   405  4.0400000000000D+00  0.0000000000000D+00  0.0000000000000D+00
   406  4.0500000000000D+00  0.0000000000000D+00  0.0000000000000D+00
   407  4.0600000000000D+00  0.0000000000000D+00  0.0000000000000D+00
   408  4.0700000000000D+00  0.0000000000000D+00  0.0000000000000D+00
   409  4.0800000000000D+00  0.0000000000000D+00  0.0000000000000D+00
   410  4.0900000000000D+00  0.0000000000000D+00  0.0000000000000D+00
   411  4.1000000000000D+00  0.0000000000000D+00  0.0000000000000D+00
   412  4.1100000000000D+00  0.0000000000000D+00  0.0000000000000D+00
   413  4.1200000000000D+00  0.0000000000000D+00  0.0000000000000D+00
   414  4.1300000000000D+00  0.0000000000000D+00  0.0000000000000D+00
   415  4.1400000000000D+00  0.0000000000000D+00  0.0000000000000D+00
   416  4.1500000000000D+00  0.0000000000000D+00  0.0000000000000D+00
   417  4.1600000000000D+00  0.0000000000000D+00  0.0000000000000D+00
   418  4.1700000000000D+00  0.0000000000000D+00  0.0000000000000D+00
   419  4.1800000000000D+00  0.0000000000000D+00  0.0000000000000D+00
   420  4.1900000000000D+00  0.0000000000000D+00  0.0000000000000D+00
   421  4.2000000000000D+00  0.0000000000000D+00  0.0000000000000D+00
   422  4.2100000000000D+00  0.0000000000000D+00  0.0000000000000D+00