Pd    ONCVPSP-3.3.1  r_core=   2.47094   2.44164   2.24604
     46.0000     18.0000      210904    zatom,zion,pspd
     8      11   2     4   600     0    pspcod,pspxc,lmax,lloc,mmax,r2well
  5.99000000  0.00000000  0.00000000    rchrg fchrg qchrg
     2     2     2     0     0    nproj
     1     1           extension_switch
   0                         4.8952188793989D+00  8.6972602829685D-01
     1  0.0000000000000D+00 -3.6436409445173D-12 -1.4481194021698D-12
     2  1.0000000000000D-02  5.7733644014474D-02 -8.6141823403595D-03
     3  2.0000000000000D-02  1.1537522954386D-01 -1.7184992964774D-02
     4  3.0000000000000D-02  1.7283287630412D-01 -2.5669133712767D-02
     5  4.0000000000000D-02  2.3001506003422D-01 -3.4023453518387D-02
     6  5.0000000000000D-02  2.8683078956106D-01 -4.2205021916072D-02
     7  6.0000000000000D-02  3.4318978273092D-01 -5.0171202495830D-02
     8  7.0000000000000D-02  3.9900264083410D-01 -5.7879726289170D-02
     9  8.0000000000000D-02  4.5418102115274D-01 -6.5288765065747D-02
    10  9.0000000000000D-02  5.0863780726672D-01 -7.2357004518916D-02
    11  1.0000000000000D-01  5.6228727675762D-01 -7.9043717316148D-02
    12  1.1000000000000D-01  6.1504526595725D-01 -8.5308835987714D-02
    13  1.2000000000000D-01  6.6682933139417D-01 -9.1113025624119D-02
    14  1.3000000000000D-01  7.1755890759968D-01 -9.6417756349381D-02
    15  1.4000000000000D-01  7.6715546094335D-01 -1.0118537553354D-01
    16  1.5000000000000D-01  8.1554263917750D-01 -1.0537917970364D-01
    17  1.6000000000000D-01  8.6264641638034D-01 -1.0896348610783D-01
    18  1.7000000000000D-01  9.0839523299817D-01 -1.1190370388252D-01
    19  1.8000000000000D-01  9.5272013069832D-01 -1.1416640476674D-01
    20  1.9000000000000D-01  9.9555488175683D-01 -1.1571939330266D-01
    21  2.0000000000000D-01  1.0368361127171D+00 -1.1653177645458D-01
    22  2.1000000000000D-01  1.0765034220693D+00 -1.1657403257256D-01
    23  2.2000000000000D-01  1.1144994917128D+00 -1.1581807961976D-01
    24  2.3000000000000D-01  1.1507701919796D+00 -1.1423734257524D-01
    25  2.4000000000000D-01  1.1852646800096D+00 -1.1180681991677D-01
    26  2.5000000000000D-01  1.2179354912831D+00 -1.0850314907962D-01
    27  2.6000000000000D-01  1.2487386241329D+00 -1.0430467077993D-01
    28  2.7000000000000D-01  1.2776336170710D+00 -9.9191492082019D-02
    29  2.8000000000000D-01  1.3045836187823D+00 -9.3145548080999D-02
    30  2.9000000000000D-01  1.3295554506521D+00 -8.6150662062815D-02
    31  3.0000000000000D-01  1.3525196617111D+00 -7.8192603995142D-02
    32  3.1000000000000D-01  1.3734505758964D+00 -6.9259147193448D-02
    33  3.2000000000000D-01  1.3923263315432D+00 -5.9340122997680D-02
    34  3.3000000000000D-01  1.4091289130386D+00 -4.8427473285986D-02
    35  3.4000000000000D-01  1.4238441745837D+00 -3.6515300643206D-02
    36  3.5000000000000D-01  1.4364618560267D+00 -2.3599915993330D-02
    37  3.6000000000000D-01  1.4469755907458D+00 -9.6798834966980D-03
    38  3.7000000000000D-01  1.4553829055754D+00  5.2439374948690D-03
    39  3.8000000000000D-01  1.4616852127869D+00  2.1168353639495D-02
    40  3.9000000000000D-01  1.4658877941472D+00  3.8087802184387D-02
    41  4.0000000000000D-01  1.4679997770975D+00  5.5994319150016D-02
    42  4.1000000000000D-01  1.4680341031077D+00  7.4877511352206D-02
    43  4.2000000000000D-01  1.4660074882766D+00  9.4724532499409D-02
    44  4.3000000000000D-01  1.4619403762641D+00  1.1552006360609D-01
    45  4.4000000000000D-01  1.4558568836547D+00  1.3724629796580D-01
    46  4.5000000000000D-01  1.4477847378688D+00  1.5988293092867D-01
    47  4.6000000000000D-01  1.4377552077467D+00  1.8340715472860D-01
    48  4.7000000000000D-01  1.4258030269512D+00  2.0779365860364D-01
    49  4.8000000000000D-01  1.4119663103430D+00  2.3301463445110D-01
    50  4.9000000000000D-01  1.3962864634977D+00  2.5903978825426D-01
    51  5.0000000000000D-01  1.3788080855478D+00  2.8583635751205D-01
    52  5.1000000000000D-01  1.3595788655448D+00  3.1336913489569D-01
    53  5.2000000000000D-01  1.3386494725474D+00  3.4160049834692D-01
    54  5.3000000000000D-01  1.3160734396581D+00  3.7049044782187D-01
    55  5.4000000000000D-01  1.2919070422380D+00  3.9999664887139D-01
    56  5.5000000000000D-01  1.2662091705443D+00  4.3007448323447D-01
    57  5.6000000000000D-01  1.2390411970457D+00  4.6067710660446D-01
    58  5.7000000000000D-01  1.2104668386807D+00  4.9175551370952D-01
    59  5.8000000000000D-01  1.1805520143365D+00  5.2325861082827D-01
    60  5.9000000000000D-01  1.1493646978358D+00  5.5513329583923D-01
    61  6.0000000000000D-01  1.1169747667283D+00  5.8732454587854D-01
    62  6.1000000000000D-01  1.0834538471954D+00  6.1977551265429D-01
    63  6.2000000000000D-01  1.0488751553832D+00  6.5242762543795D-01
    64  6.3000000000000D-01  1.0133133354918D+00  6.8522070172386D-01
    65  6.4000000000000D-01  9.7684429495407D-01  7.1809306551628D-01
    66  6.5000000000000D-01  9.3954503704699D-01  7.5098167317090D-01
    67  6.6000000000000D-01  9.0149349128789D-01  7.8382224668336D-01
    68  6.7000000000000D-01  8.6276834197239D-01  8.1654941428156D-01
    69  6.8000000000000D-01  8.2344885522051D-01  8.4909685814216D-01
    70  6.9000000000000D-01  7.8361470490278D-01  8.8139746901332D-01
    71  7.0000000000000D-01  7.4334579782418D-01  9.1338350748760D-01
    72  7.1000000000000D-01  7.0272209854966D-01  9.4498677162904D-01
    73  7.2000000000000D-01  6.6182345425943D-01  9.7613877061910D-01
    74  7.3000000000000D-01  6.2072942002660D-01  1.0067709040455D+00
    75  7.4000000000000D-01  5.7951908491351D-01  1.0368146464182D+00
    76  7.5000000000000D-01  5.3827089928566D-01  1.0662017364562D+00
    77  7.6000000000000D-01  4.9706250374462D-01  1.0948643706493D+00
    78  7.7000000000000D-01  4.5597056008255D-01  1.1227354005610D+00
    79  7.8000000000000D-01  4.1507058466150D-01  1.1497485332969D+00
    80  7.9000000000000D-01  3.7443678462066D-01  1.1758385345315D+00
    81  8.0000000000000D-01  3.3414189731334D-01  1.2009414334440D+00
    82  8.1000000000000D-01  2.9425703337350D-01  1.2249947288854D+00
    83  8.2000000000000D-01  2.5485152380874D-01  1.2479375960614D+00
    84  8.3000000000000D-01  2.1599277151266D-01  1.2697110929908D+00
    85  8.4000000000000D-01  1.7774610758424D-01  1.2902583659650D+00
    86  8.5000000000000D-01  1.4017465283638D-01  1.3095248532147D+00
    87  8.6000000000000D-01  1.0333918486807D-01  1.3274584859623D+00
    88  8.7000000000000D-01  6.7298011066658D-02  1.3440098860224D+00
    89  8.8000000000000D-01  3.2106847897639D-02  1.3591325590932D+00
    90  8.9000000000000D-01 -2.1812931716855D-03  1.3727830828719D+00
    91  9.0000000000000D-01 -3.5516212779338D-02  1.3849212891135D+00
    92  9.1000000000000D-01 -6.7850623484379D-02  1.3955104387510D+00
    93  9.2000000000000D-01 -9.9140241982752D-02  1.4045173891890D+00
    94  9.3000000000000D-01 -1.2934387342988D-01  1.4119127528876D+00
    95  9.4000000000000D-01 -1.5842348759285D-01  1.4176710463579D+00
    96  9.5000000000000D-01 -1.8634428657237D-01  1.4217708287016D+00
    97  9.6000000000000D-01 -2.1307476385305D-01  1.4241948288413D+00
    98  9.7000000000000D-01 -2.3858675445992D-01  1.4249300606062D+00
    99  9.8000000000000D-01 -2.6285547601998D-01  1.4239679248629D+00
   100  9.9000000000000D-01 -2.8585956054870D-01  1.4213042979055D+00
   101  1.0000000000000D+00 -3.0758107680426D-01  1.4169396053539D+00
   102  1.0100000000000D+00 -3.2800554307519D-01  1.4108788808420D+00
   103  1.0200000000000D+00 -3.4712193029175D-01  1.4031318088181D+00
   104  1.0300000000000D+00 -3.6492265537675D-01  1.3937127508268D+00
   105  1.0400000000000D+00 -3.8140356477521D-01  1.3826407546820D+00
   106  1.0500000000000D+00 -3.9656390813141D-01  1.3699395459995D+00
   107  1.0600000000000D+00 -4.1040630210660D-01  1.3556375016068D+00
   108  1.0700000000000D+00 -4.2293668435845D-01  1.3397676044091D+00
   109  1.0800000000000D+00 -4.3416425773223D-01  1.3223673793506D+00
   110  1.0900000000000D+00 -4.4410142473850D-01  1.3034788101693D+00
   111  1.1000000000000D+00 -4.5276371242329D-01  1.2831482367171D+00
   112  1.1100000000000D+00 -4.6016968776319D-01  1.2614262326793D+00
   113  1.1200000000000D+00 -4.6634086374639D-01  1.2383674636014D+00
   114  1.1300000000000D+00 -4.7130159632805D-01  1.2140305252010D+00
   115  1.1400000000000D+00 -4.7507897247425D-01  1.1884777620104D+00
   116  1.1500000000000D+00 -4.7770268953950D-01  1.1617750664796D+00
   117  1.1600000000000D+00 -4.7920492624706D-01  1.1339916587359D+00
   118  1.1700000000000D+00 -4.7962020556628D-01  1.1051998472724D+00
   119  1.1800000000000D+00 -4.7898524980617D-01  1.0754747709036D+00
   120  1.1900000000000D+00 -4.7733882827136D-01  1.0448941224145D+00
   121  1.2000000000000D+00 -4.7472159784924D-01  1.0135378543968D+00
   122  1.2100000000000D+00 -4.7117593691184D-01  9.8148786781528D-01
   123  1.2200000000000D+00 -4.6674577294745D-01  9.4882768394548D-01
   124  1.2300000000000D+00 -4.6147640435112D-01  9.1564210038135D-01
   125  1.2400000000000D+00 -4.5541431681844D-01  8.8201683185859D-01
   126  1.2500000000000D+00 -4.4860699480689D-01  8.4803813671364D-01
   127  1.2600000000000D+00 -4.4110272854569D-01  8.1379242986616D-01
   128  1.2700000000000D+00 -4.3295041708244D-01  7.7936588324321D-01
   129  1.2800000000000D+00 -4.2419936786871D-01  7.4484401461857D-01
   130  1.2900000000000D+00 -4.1489909339966D-01  7.1031126590947D-01
   131  1.3000000000000D+00 -4.0509910542313D-01  6.7585057198071D-01
   132  1.3100000000000D+00 -3.9484870724476D-01  6.4154292105589D-01
   133  1.3200000000000D+00 -3.8419678465734D-01  6.0746690788368D-01
   134  1.3300000000000D+00 -3.7319159602204D-01  5.7369828079901D-01
   135  1.3400000000000D+00 -3.6188056203417D-01  5.4030948386842D-01
   136  1.3500000000000D+00 -3.5031005569348D-01  5.0736919531475D-01
   137  1.3600000000000D+00 -3.3852519300693D-01  4.7494186341726D-01
   138  1.3700000000000D+00 -3.2656962493690D-01  4.4308724110864D-01
   139  1.3800000000000D+00 -3.1448533049334D-01  4.1185991775461D-01
   140  1.3900000000000D+00 -3.0231241472252D-01  3.8130886397164D-01
   141  1.4000000000000D+00 -2.9008889827563D-01  3.5147693001768D-01
   142  1.4100000000000D+00 -2.7785055413437D-01  3.2240053677945D-01
   143  1.4200000000000D+00 -2.6563068336925D-01  2.9410910246582D-01
   144  1.4300000000000D+00 -2.5345978307681D-01  2.6662393625947D-01
   145  1.4400000000000D+00 -2.4136594863229D-01  2.3996047871487D-01
   146  1.4500000000000D+00 -2.2937526515427D-01  2.1413037211642D-01
   147  1.4600000000000D+00 -2.1751237712136D-01  1.8914406017728D-01
   148  1.4700000000000D+00 -2.0580070257101D-01  1.6501174702629D-01
   149  1.4800000000000D+00 -1.9426225670147D-01  1.4174249484735D-01
   150  1.4900000000000D+00 -1.8291769785494D-01  1.1934437115325D-01
   151  1.5000000000000D+00 -1.7178631796705D-01  9.7824329507249D-02
   152  1.5100000000000D+00 -1.6088604834147D-01  7.7188154520521D-02
   153  1.5200000000000D+00 -1.5023346172577D-01  5.7440385017563D-02
   154  1.5300000000000D+00 -1.3984377858739D-01  3.8584251827673D-02
   155  1.5400000000000D+00 -1.2973087604363D-01  2.0621623064548D-02
   156  1.5500000000000D+00 -1.1990729945218D-01  3.5529570561629D-03
   157  1.5600000000000D+00 -1.1038427668072D-01 -1.2622736874417D-02
   158  1.5700000000000D+00 -1.0117173498756D-01 -2.7907929878837D-02
   159  1.5800000000000D+00 -9.2278320563063D-02 -4.2306596991611D-02
   160  1.5900000000000D+00 -8.3711420694327D-02 -5.5824232429520D-02
   161  1.6000000000000D+00 -7.5477188297732D-02 -6.8467857661917D-02
   162  1.6100000000000D+00 -6.7580568723500D-02 -8.0246022410920D-02
   163  1.6200000000000D+00 -6.0025329828827D-02 -9.1168794584608D-02
   164  1.6300000000000D+00 -5.2814094266795D-02 -1.0124774301775D-01
   165  1.6400000000000D+00 -4.5948372539026D-02 -1.1049591852590D-01
   166  1.6500000000000D+00 -3.9428598584902D-02 -1.1892782616101D-01
   167  1.6600000000000D+00 -3.3254169099855D-02 -1.2655938387932D-01
   168  1.6700000000000D+00 -2.7423484061252D-02 -1.3340787720136D-01
   169  1.6800000000000D+00 -2.1933987872940D-02 -1.3949191197901D-01
   170  1.6900000000000D+00 -1.6782212646768D-02 -1.4483135915689D-01
   171  1.7000000000000D+00 -1.1963823517214D-02 -1.4944729174998D-01
   172  1.7100000000000D+00 -7.4736650217156D-03 -1.5336191758090D-01
   173  1.7200000000000D+00 -3.3058085727688D-03 -1.5659850748313D-01
   174  1.7300000000000D+00  5.4639897292456D-04 -1.5918131874622D-01
   175  1.7400000000000D+00  4.0902858421654D-03 -1.6113551435328D-01
   176  1.7500000000000D+00  7.3338051943414D-03 -1.6248707869410D-01
   177  1.7600000000000D+00  1.0285484413138D-02 -1.6326273000601D-01
   178  1.7700000000000D+00  1.2954374036601D-02 -1.6348983014465D-01
   179  1.7800000000000D+00  1.5349996483606D-02 -1.6319629205105D-01
   180  1.7900000000000D+00  1.7482294746978D-02 -1.6241048546885D-01
   181  1.8000000000000D+00  1.9361581243096D-02 -1.6116114135859D-01
   182  1.8100000000000D+00  2.0998486947358D-02 -1.5947725546864D-01
   183  1.8200000000000D+00  2.2403911045109D-02 -1.5738799162569D-01
   184  1.8300000000000D+00  2.3588971183865D-02 -1.5492258508102D-01
   185  1.8400000000000D+00  2.4564954576891D-02 -1.5211024655924D-01
   186  1.8500000000000D+00  2.5343270026178D-02 -1.4898006727407D-01
   187  1.8600000000000D+00  2.5935401096418D-02 -1.4556092554559D-01
   188  1.8700000000000D+00  2.6352860531433D-02 -1.4188139531929D-01
   189  1.8800000000000D+00  2.6607146070443D-02 -1.3796965705446D-01
   190  1.8900000000000D+00  2.6709697836940D-02 -1.3385341147972D-01
   191  1.9000000000000D+00  2.6671857316686D-02 -1.2955979632542D-01
   192  1.9100000000000D+00  2.6504828236213D-02 -1.2511530689606D-01
   193  1.9200000000000D+00  2.6219639179410D-02 -1.2054572011245D-01
   194  1.9300000000000D+00  2.5827108370096D-02 -1.1587602321170D-01
   195  1.9400000000000D+00  2.5337810388480D-02 -1.1113034653168D-01
   196  1.9500000000000D+00  2.4762045164831D-02 -1.0633190135669D-01
   197  1.9600000000000D+00  2.4109809174339D-02 -1.0150292266124D-01
   198  1.9700000000000D+00  2.3390768899141D-02 -9.6664616978967D-02
   199  1.9800000000000D+00  2.2614236778964D-02 -9.1837116051730D-02
   200  1.9900000000000D+00  2.1789149341686D-02 -8.7039435441641D-02
   201  2.0000000000000D+00  2.0924048028784D-02 -8.2289439589473D-02
   202  2.0100000000000D+00  2.0027062233100D-02 -7.7603812003507D-02
   203  2.0200000000000D+00  1.9105894946100D-02 -7.2998031742785D-02
   204  2.0300000000000D+00  1.8167810830096D-02 -6.8486355711388D-02
   205  2.0400000000000D+00  1.7219626639392D-02 -6.4081806588431D-02
   206  2.0500000000000D+00  1.6267704266341D-02 -5.9796167226079D-02
   207  2.0600000000000D+00  1.5317945912321D-02 -5.5639980117986D-02
   208  2.0700000000000D+00  1.4375791845620D-02 -5.1622553316292D-02
   209  2.0800000000000D+00  1.3446220302837D-02 -4.7751971552909D-02
   210  2.0900000000000D+00  1.2533749613833D-02 -4.4035112841802D-02
   211  2.1000000000000D+00  1.1642442621541D-02 -4.0477670816193D-02
   212  2.1100000000000D+00  1.0775912929795D-02 -3.7084181471696D-02
   213  2.1200000000000D+00  9.9373333811491D-03 -3.3858055551519D-02
   214  2.1300000000000D+00  9.1294462525543D-03 -3.0801615100426D-02
   215  2.1400000000000D+00  8.3545752407145D-03 -2.7916134450963D-02
   216  2.1500000000000D+00  7.6146392184813D-03 -2.5201885639725D-02
   217  2.1600000000000D+00  6.9111673517341D-03 -2.2658187061374D-02
   218  2.1700000000000D+00  6.2453157988164D-03 -2.0283456100559D-02
   219  2.1800000000000D+00  5.6178856101059D-03 -1.8075264621594D-02
   220  2.1900000000000D+00  5.0293417569157D-03 -1.6030397158814D-02
   221  2.2000000000000D+00  4.4798332524352D-03 -1.4144911770226D-02
   222  2.2100000000000D+00  3.9692140636620D-03 -1.2414202647144D-02
   223  2.2200000000000D+00  3.4970647873881D-03 -1.0833064505116D-02
   224  2.2300000000000D+00  3.0627148997126D-03 -9.3957582041020D-03
   225  2.2400000000000D+00  2.6652654483712D-03 -8.0960772142130D-03
   226  2.2500000000000D+00  2.3036119969962D-03 -6.9274144980620D-03
   227  2.2600000000000D+00  1.9764677581807D-03 -5.8828295516637D-03
   228  2.2700000000000D+00  1.6823867154545D-03 -4.9551151052005D-03
   229  2.2800000000000D+00  1.4197865256579D-03 -4.1368629287462D-03
   230  2.2900000000000D+00  1.1869712932618D-03 -3.4205289490916D-03
   231  2.3000000000000D+00  9.8215377949015D-04 -2.7984965287235D-03
   232  2.3100000000000D+00  8.0347704883061D-04 -2.2631378948919D-03
   233  2.3200000000000D+00  6.4903569271347D-04 -1.8068740915411D-03
   234  2.3300000000000D+00  5.1689587376761D-04 -1.4222314096276D-03
   235  2.3400000000000D+00  4.0511469324492D-04 -1.1018956500040D-03
   236  2.3500000000000D+00  3.1175864115814D-04 -8.3876356988520D-04
   237  2.3600000000000D+00  2.3492054464086D-04 -6.2598990779704D-04
   238  2.3700000000000D+00  1.7273567635457D-04 -4.5703180765072D-04
   239  2.3800000000000D+00  1.2339647077532D-04 -3.2568912289787D-04
   240  2.3900000000000D+00  8.5164365303043D-05 -2.2615883109487D-04
   241  2.4000000000000D+00  5.6385817916225D-05 -1.5300632532310D-04
   242  2.4100000000000D+00  3.5500440399956D-05 -1.0122583202908D-04
   243  2.4200000000000D+00  2.1033974839347D-05 -6.6125175538894D-05
   244  2.4300000000000D+00  1.1649755684122D-05 -4.4004869817626D-05
   245  2.4400000000000D+00  6.1187239521798D-06 -3.1587705675422D-05
   246  2.4500000000000D+00  3.4027504601250D-06 -2.6492935891378D-05
   247  2.4600000000000D+00  2.3275453949032D-06 -2.4418052852363D-05
   248  2.4700000000000D+00  1.9384996941949D-06 -2.1926844745814D-05
   249  2.4800000000000D+00  1.3757017629578D-06 -1.5477383794403D-05
   250  2.4900000000000D+00  6.8843779834207D-07 -7.4757312675548D-06
   251  2.5000000000000D+00  3.3031531565767D-08 -3.4399965257283D-07
   252  2.5100000000000D+00 -1.7767480481872D-07  2.1220808400777D-06
   253  2.5200000000000D+00 -1.5162604920895D-07  1.7973155762470D-06
   254  2.5300000000000D+00 -9.3352841096524D-09  1.0970991034831D-07
   255  2.5400000000000D+00  3.1910579419935D-08 -4.3934655254646D-07
   256  2.5500000000000D+00  3.0267502300382D-08 -4.2097637315695D-07
   257  2.5600000000000D+00  3.0986375650025D-09 -4.3470626949719D-08
   258  2.5700000000000D+00 -4.5946194976763D-09  5.1898146088711D-08
   259  2.5800000000000D+00 -4.8871527027333D-09  5.5202430811206D-08
   260  2.5900000000000D+00 -8.7929681273637D-10  9.9320247227891D-09
   261  2.6000000000000D+00  0.0000000000000D+00  0.0000000000000D+00
   262  2.6100000000000D+00  0.0000000000000D+00  0.0000000000000D+00
   263  2.6200000000000D+00  0.0000000000000D+00  0.0000000000000D+00
   264  2.6300000000000D+00  0.0000000000000D+00  0.0000000000000D+00
   265  2.6400000000000D+00  0.0000000000000D+00  0.0000000000000D+00
   266  2.6500000000000D+00  0.0000000000000D+00  0.0000000000000D+00
   267  2.6600000000000D+00  0.0000000000000D+00  0.0000000000000D+00
   268  2.6700000000000D+00  0.0000000000000D+00  0.0000000000000D+00
   269  2.6800000000000D+00  0.0000000000000D+00  0.0000000000000D+00
   270  2.6900000000000D+00  0.0000000000000D+00  0.0000000000000D+00
   271  2.7000000000000D+00  0.0000000000000D+00  0.0000000000000D+00
   272  2.7100000000000D+00  0.0000000000000D+00  0.0000000000000D+00
   273  2.7200000000000D+00  0.0000000000000D+00  0.0000000000000D+00
   274  2.7300000000000D+00  0.0000000000000D+00  0.0000000000000D+00
   275  2.7400000000000D+00  0.0000000000000D+00  0.0000000000000D+00
   276  2.7500000000000D+00  0.0000000000000D+00  0.0000000000000D+00
   277  2.7600000000000D+00  0.0000000000000D+00  0.0000000000000D+00
   278  2.7700000000000D+00  0.0000000000000D+00  0.0000000000000D+00
   279  2.7800000000000D+00  0.0000000000000D+00  0.0000000000000D+00
   280  2.7900000000000D+00  0.0000000000000D+00  0.0000000000000D+00
   281  2.8000000000000D+00  0.0000000000000D+00  0.0000000000000D+00
   282  2.8100000000000D+00  0.0000000000000D+00  0.0000000000000D+00
   283  2.8200000000000D+00  0.0000000000000D+00  0.0000000000000D+00
   284  2.8300000000000D+00  0.0000000000000D+00  0.0000000000000D+00
   285  2.8400000000000D+00  0.0000000000000D+00  0.0000000000000D+00
   286  2.8500000000000D+00  0.0000000000000D+00  0.0000000000000D+00
   287  2.8600000000000D+00  0.0000000000000D+00  0.0000000000000D+00
   288  2.8700000000000D+00  0.0000000000000D+00  0.0000000000000D+00
   289  2.8800000000000D+00  0.0000000000000D+00  0.0000000000000D+00
   290  2.8900000000000D+00  0.0000000000000D+00  0.0000000000000D+00
   291  2.9000000000000D+00  0.0000000000000D+00  0.0000000000000D+00
   292  2.9100000000000D+00  0.0000000000000D+00  0.0000000000000D+00
   293  2.9200000000000D+00  0.0000000000000D+00  0.0000000000000D+00
   294  2.9300000000000D+00  0.0000000000000D+00  0.0000000000000D+00
   295  2.9400000000000D+00  0.0000000000000D+00  0.0000000000000D+00
   296  2.9500000000000D+00  0.0000000000000D+00  0.0000000000000D+00
   297  2.9600000000000D+00  0.0000000000000D+00  0.0000000000000D+00
   298  2.9700000000000D+00  0.0000000000000D+00  0.0000000000000D+00
   299  2.9800000000000D+00  0.0000000000000D+00  0.0000000000000D+00
   300  2.9900000000000D+00  0.0000000000000D+00  0.0000000000000D+00
   301  3.0000000000000D+00  0.0000000000000D+00  0.0000000000000D+00
   302  3.0100000000000D+00  0.0000000000000D+00  0.0000000000000D+00
   303  3.0200000000000D+00  0.0000000000000D+00  0.0000000000000D+00
   304  3.0300000000000D+00  0.0000000000000D+00  0.0000000000000D+00
   305  3.0400000000000D+00  0.0000000000000D+00  0.0000000000000D+00
   306  3.0500000000000D+00  0.0000000000000D+00  0.0000000000000D+00
   307  3.0600000000000D+00  0.0000000000000D+00  0.0000000000000D+00
   308  3.0700000000000D+00  0.0000000000000D+00  0.0000000000000D+00
   309  3.0800000000000D+00  0.0000000000000D+00  0.0000000000000D+00
   310  3.0900000000000D+00  0.0000000000000D+00  0.0000000000000D+00
   311  3.1000000000000D+00  0.0000000000000D+00  0.0000000000000D+00
   312  3.1100000000000D+00  0.0000000000000D+00  0.0000000000000D+00
   313  3.1200000000000D+00  0.0000000000000D+00  0.0000000000000D+00
   314  3.1300000000000D+00  0.0000000000000D+00  0.0000000000000D+00
   315  3.1400000000000D+00  0.0000000000000D+00  0.0000000000000D+00
   316  3.1500000000000D+00  0.0000000000000D+00  0.0000000000000D+00
   317  3.1600000000000D+00  0.0000000000000D+00  0.0000000000000D+00
   318  3.1700000000000D+00  0.0000000000000D+00  0.0000000000000D+00
   319  3.1800000000000D+00  0.0000000000000D+00  0.0000000000000D+00
   320  3.1900000000000D+00  0.0000000000000D+00  0.0000000000000D+00
   321  3.2000000000000D+00  0.0000000000000D+00  0.0000000000000D+00
   322  3.2100000000000D+00  0.0000000000000D+00  0.0000000000000D+00
   323  3.2200000000000D+00  0.0000000000000D+00  0.0000000000000D+00
   324  3.2300000000000D+00  0.0000000000000D+00  0.0000000000000D+00
   325  3.2400000000000D+00  0.0000000000000D+00  0.0000000000000D+00
   326  3.2500000000000D+00  0.0000000000000D+00  0.0000000000000D+00
   327  3.2600000000000D+00  0.0000000000000D+00  0.0000000000000D+00
   328  3.2700000000000D+00  0.0000000000000D+00  0.0000000000000D+00
   329  3.2800000000000D+00  0.0000000000000D+00  0.0000000000000D+00
   330  3.2900000000000D+00  0.0000000000000D+00  0.0000000000000D+00
   331  3.3000000000000D+00  0.0000000000000D+00  0.0000000000000D+00
   332  3.3100000000000D+00  0.0000000000000D+00  0.0000000000000D+00
   333  3.3200000000000D+00  0.0000000000000D+00  0.0000000000000D+00
   334  3.3300000000000D+00  0.0000000000000D+00  0.0000000000000D+00
   335  3.3400000000000D+00  0.0000000000000D+00  0.0000000000000D+00
   336  3.3500000000000D+00  0.0000000000000D+00  0.0000000000000D+00
   337  3.3600000000000D+00  0.0000000000000D+00  0.0000000000000D+00
   338  3.3700000000000D+00  0.0000000000000D+00  0.0000000000000D+00
   339  3.3800000000000D+00  0.0000000000000D+00  0.0000000000000D+00
   340  3.3900000000000D+00  0.0000000000000D+00  0.0000000000000D+00
   341  3.4000000000000D+00  0.0000000000000D+00  0.0000000000000D+00
   342  3.4100000000000D+00  0.0000000000000D+00  0.0000000000000D+00
   343  3.4200000000000D+00  0.0000000000000D+00  0.0000000000000D+00
   344  3.4300000000000D+00  0.0000000000000D+00  0.0000000000000D+00
   345  3.4400000000000D+00  0.0000000000000D+00  0.0000000000000D+00
   346  3.4500000000000D+00  0.0000000000000D+00  0.0000000000000D+00
   347  3.4600000000000D+00  0.0000000000000D+00  0.0000000000000D+00
   348  3.4700000000000D+00  0.0000000000000D+00  0.0000000000000D+00
   349  3.4800000000000D+00  0.0000000000000D+00  0.0000000000000D+00
   350  3.4900000000000D+00  0.0000000000000D+00  0.0000000000000D+00
   351  3.5000000000000D+00  0.0000000000000D+00  0.0000000000000D+00
   352  3.5100000000000D+00  0.0000000000000D+00  0.0000000000000D+00
   353  3.5200000000000D+00  0.0000000000000D+00  0.0000000000000D+00
   354  3.5300000000000D+00  0.0000000000000D+00  0.0000000000000D+00
   355  3.5400000000000D+00  0.0000000000000D+00  0.0000000000000D+00
   356  3.5500000000000D+00  0.0000000000000D+00  0.0000000000000D+00
   357  3.5600000000000D+00  0.0000000000000D+00  0.0000000000000D+00
   358  3.5700000000000D+00  0.0000000000000D+00  0.0000000000000D+00
   359  3.5800000000000D+00  0.0000000000000D+00  0.0000000000000D+00
   360  3.5900000000000D+00  0.0000000000000D+00  0.0000000000000D+00
   361  3.6000000000000D+00  0.0000000000000D+00  0.0000000000000D+00
   362  3.6100000000000D+00  0.0000000000000D+00  0.0000000000000D+00
   363  3.6200000000000D+00  0.0000000000000D+00  0.0000000000000D+00
   364  3.6300000000000D+00  0.0000000000000D+00  0.0000000000000D+00
   365  3.6400000000000D+00  0.0000000000000D+00  0.0000000000000D+00
   366  3.6500000000000D+00  0.0000000000000D+00  0.0000000000000D+00
   367  3.6600000000000D+00  0.0000000000000D+00  0.0000000000000D+00
   368  3.6700000000000D+00  0.0000000000000D+00  0.0000000000000D+00
   369  3.6800000000000D+00  0.0000000000000D+00  0.0000000000000D+00
   370  3.6900000000000D+00  0.0000000000000D+00  0.0000000000000D+00
   371  3.7000000000000D+00  0.0000000000000D+00  0.0000000000000D+00
   372  3.7100000000000D+00  0.0000000000000D+00  0.0000000000000D+00
   373  3.7200000000000D+00  0.0000000000000D+00  0.0000000000000D+00
   374  3.7300000000000D+00  0.0000000000000D+00  0.0000000000000D+00
   375  3.7400000000000D+00  0.0000000000000D+00  0.0000000000000D+00
   376  3.7500000000000D+00  0.0000000000000D+00  0.0000000000000D+00
   377  3.7600000000000D+00  0.0000000000000D+00  0.0000000000000D+00
   378  3.7700000000000D+00  0.0000000000000D+00  0.0000000000000D+00
   379  3.7800000000000D+00  0.0000000000000D+00  0.0000000000000D+00
   380  3.7900000000000D+00  0.0000000000000D+00  0.0000000000000D+00
   381  3.8000000000000D+00  0.0000000000000D+00  0.0000000000000D+00
   382  3.8100000000000D+00  0.0000000000000D+00  0.0000000000000D+00
   383  3.8200000000000D+00  0.0000000000000D+00  0.0000000000000D+00
   384  3.8300000000000D+00  0.0000000000000D+00  0.0000000000000D+00
   385  3.8400000000000D+00  0.0000000000000D+00  0.0000000000000D+00
   386  3.8500000000000D+00  0.0000000000000D+00  0.0000000000000D+00
   387  3.8600000000000D+00  0.0000000000000D+00  0.0000000000000D+00
   388  3.8700000000000D+00  0.0000000000000D+00  0.0000000000000D+00
   389  3.8800000000000D+00  0.0000000000000D+00  0.0000000000000D+00
   390  3.8900000000000D+00  0.0000000000000D+00  0.0000000000000D+00
   391  3.9000000000000D+00  0.0000000000000D+00  0.0000000000000D+00
   392  3.9100000000000D+00  0.0000000000000D+00  0.0000000000000D+00
   393  3.9200000000000D+00  0.0000000000000D+00  0.0000000000000D+00
   394  3.9300000000000D+00  0.0000000000000D+00  0.0000000000000D+00
   395  3.9400000000000D+00  0.0000000000000D+00  0.0000000000000D+00
   396  3.9500000000000D+00  0.0000000000000D+00  0.0000000000000D+00
   397  3.9600000000000D+00  0.0000000000000D+00  0.0000000000000D+00
   398  3.9700000000000D+00  0.0000000000000D+00  0.0000000000000D+00
   399  3.9800000000000D+00  0.0000000000000D+00  0.0000000000000D+00
   400  3.9900000000000D+00  0.0000000000000D+00  0.0000000000000D+00
   401  4.0000000000000D+00  0.0000000000000D+00  0.0000000000000D+00
   402  4.0100000000000D+00  0.0000000000000D+00  0.0000000000000D+00
   403  4.0200000000000D+00  0.0000000000000D+00  0.0000000000000D+00
   404  4.0300000000000D+00  0.0000000000000D+00  0.0000000000000D+00
   405  4.0400000000000D+00  0.0000000000000D+00  0.0000000000000D+00
   406  4.0500000000000D+00  0.0000000000000D+00  0.0000000000000D+00
   407  4.0600000000000D+00  0.0000000000000D+00  0.0000000000000D+00
   408  4.0700000000000D+00  0.0000000000000D+00  0.0000000000000D+00
   409  4.0800000000000D+00  0.0000000000000D+00  0.0000000000000D+00
   410  4.0900000000000D+00  0.0000000000000D+00  0.0000000000000D+00
   411  4.1000000000000D+00  0.0000000000000D+00  0.0000000000000D+00
   412  4.1100000000000D+00  0.0000000000000D+00  0.0000000000000D+00
   413  4.1200000000000D+00  0.0000000000000D+00  0.0000000000000D+00
   414  4.1300000000000D+00  0.0000000000000D+00  0.0000000000000D+00
   415  4.1400000000000D+00  0.0000000000000D+00  0.0000000000000D+00
   416  4.1500000000000D+00  0.0000000000000D+00  0.0000000000000D+00
   417  4.1600000000000D+00  0.0000000000000D+00  0.0000000000000D+00
   418  4.1700000000000D+00  0.0000000000000D+00  0.0000000000000D+00
   419  4.1800000000000D+00  0.0000000000000D+00  0.0000000000000D+00
   420  4.1900000000000D+00  0.0000000000000D+00  0.0000000000000D+00
   421  4.2000000000000D+00  0.0000000000000D+00  0.0000000000000D+00
   422  4.2100000000000D+00  0.0000000000000D+00  0.0000000000000D+00