Rb    ONCVPSP-3.3.1  r_core=   3.18390   3.03555   2.89411
     37.0000      9.0000      210904    zatom,zion,pspd
     8      11   2     4   600     0    pspcod,pspxc,lmax,lloc,mmax,r2well
  5.99000000  0.00000000  0.00000000    rchrg fchrg qchrg
     2     2     2     0     0    nproj
     1     1           extension_switch
   0                         1.3310817438423D+00 -7.1722147000623D-02
     1  0.0000000000000D+00 -6.0118576783452D-14  2.9048985439317D-13
     2  1.0000000000000D-02  3.3994829295098D-02  2.1579591418249D-02
     3  2.0000000000000D-02  6.7962163334943D-02  4.3127251071713D-02
     4  3.0000000000000D-02  1.0187453313042D-01  6.4611087214099D-02
     5  4.0000000000000D-02  1.3570452219979D-01  8.5999288109826D-02
     6  5.0000000000000D-02  1.6942479276027D-01  1.0726016197363D-01
     7  6.0000000000000D-02  2.0300811184491D-01  1.2836217683105D-01
     8  7.0000000000000D-02  2.3642737732028D-01  1.4927400027308D-01
     9  8.0000000000000D-02  2.6965564377990D-01  1.6996453907795D-01
    10  9.0000000000000D-02  3.0266614828902D-01  1.9040297867258D-01
    11  1.0000000000000D-01  3.3543233595600D-01  2.1055882240599D-01
    12  1.1000000000000D-01  3.6792788530581D-01  2.3040193060619D-01
    13  1.2000000000000D-01  4.0012673343135D-01  2.4990255939162D-01
    14  1.3000000000000D-01  4.3200310089831D-01  2.6903139920770D-01
    15  1.4000000000000D-01  4.6353151637934D-01  2.8775961305810D-01
    16  1.5000000000000D-01  4.9468684099376D-01  3.0605887439976D-01
    17  1.6000000000000D-01  5.2544429232887D-01  3.2390140467005D-01
    18  1.7000000000000D-01  5.5577946811940D-01  3.4126001041323D-01
    19  1.8000000000000D-01  5.8566836956150D-01  3.5810811997287D-01
    20  1.9000000000000D-01  6.1508742423839D-01  3.7441981971599D-01
    21  2.0000000000000D-01  6.4401350863445D-01  3.9016988975340D-01
    22  2.1000000000000D-01  6.7242397021529D-01  4.0533383912034D-01
    23  2.2000000000000D-01  7.0029664905128D-01  4.1988794038012D-01
    24  2.3000000000000D-01  7.2760989896246D-01  4.3380926361275D-01
    25  2.4000000000000D-01  7.5434260816314D-01  4.4707570974959D-01
    26  2.5000000000000D-01  7.8047421938456D-01  4.5966604321413D-01
    27  2.6000000000000D-01  8.0598474945464D-01  4.7155992382804D-01
    28  2.7000000000000D-01  8.3085480831411D-01  4.8273793794087D-01
    29  2.8000000000000D-01  8.5506561744852D-01  4.9318162874088D-01
    30  2.9000000000000D-01  8.7859902771651D-01  5.0287352570368D-01
    31  3.0000000000000D-01  9.0143753655452D-01  5.1179717313467D-01
    32  3.1000000000000D-01  9.2356430453927D-01  5.1993715776060D-01
    33  3.2000000000000D-01  9.4496317128921D-01  5.2727913532482D-01
    34  3.3000000000000D-01  9.6561867068717D-01  5.3380985614046D-01
    35  3.4000000000000D-01  9.8551604540652D-01  5.3951718955521D-01
    36  3.5000000000000D-01  1.0046412607240D+00  5.4439014728099D-01
    37  3.6000000000000D-01  1.0229810176032D+00  5.4841890554153D-01
    38  3.7000000000000D-01  1.0405227650319D+00  5.5159482599085D-01
    39  3.8000000000000D-01  1.0572547115998D+00  5.5391047535543D-01
    40  3.9000000000000D-01  1.0731658363010D+00  5.5535964375296D-01
    41  4.0000000000000D-01  1.0882458985471D+00  5.5593736164068D-01
    42  4.1000000000000D-01  1.1024854473798D+00  5.5563991534701D-01
    43  4.2000000000000D-01  1.1158758298681D+00  5.5446486113997D-01
    44  4.3000000000000D-01  1.1284091986807D+00  5.5241103778708D-01
    45  4.4000000000000D-01  1.1400785188214D+00  5.4947857756194D-01
    46  4.5000000000000D-01  1.1508775735180D+00  5.4566891565337D-01
    47  4.6000000000000D-01  1.1608009692562D+00  5.4098479793451D-01
    48  4.7000000000000D-01  1.1698441399482D+00  5.3543028705004D-01
    49  4.8000000000000D-01  1.1780033502311D+00  5.2901076678112D-01
    50  4.9000000000000D-01  1.1852756978866D+00  5.2173294464948D-01
    51  5.0000000000000D-01  1.1916591153771D+00  5.1360485272326D-01
    52  5.1000000000000D-01  1.1971523704936D+00  5.0463584658952D-01
    53  5.2000000000000D-01  1.2017550661113D+00  4.9483660246002D-01
    54  5.3000000000000D-01  1.2054676390503D+00  4.8421911237906D-01
    55  5.4000000000000D-01  1.2082913580404D+00  4.7279667750492D-01
    56  5.5000000000000D-01  1.2102283207869D+00  4.6058389943823D-01
    57  5.6000000000000D-01  1.2112814501412D+00  4.4759666957382D-01
    58  5.7000000000000D-01  1.2114544893741D+00  4.3385215645522D-01
    59  5.8000000000000D-01  1.2107519965566D+00  4.1936879111401D-01
    60  5.9000000000000D-01  1.2091793380507D+00  4.0416625037905D-01
    61  6.0000000000000D-01  1.2067426811143D+00  3.8826543814439D-01
    62  6.1000000000000D-01  1.2034489856270D+00  3.7168846458763D-01
    63  6.2000000000000D-01  1.1993059949429D+00  3.5445862333415D-01
    64  6.3000000000000D-01  1.1943222258782D+00  3.3660036656650D-01
    65  6.4000000000000D-01  1.1885069578426D+00  3.1813927808188D-01
    66  6.5000000000000D-01  1.1818702211257D+00  2.9910204430421D-01
    67  6.6000000000000D-01  1.1744227843472D+00  2.7951642326213D-01
    68  6.7000000000000D-01  1.1661761410867D+00  2.5941121154754D-01
    69  6.8000000000000D-01  1.1571424957030D+00  2.3881620927392D-01
    70  6.9000000000000D-01  1.1473347483609D+00  2.1776218305787D-01
    71  7.0000000000000D-01  1.1367664792783D+00  1.9628082705179D-01
    72  7.1000000000000D-01  1.1254519322126D+00  1.7440472205958D-01
    73  7.2000000000000D-01  1.1134059972036D+00  1.5216729277234D-01
    74  7.3000000000000D-01  1.1006441925916D+00  1.2960276316496D-01
    75  7.4000000000000D-01  1.0871826463315D+00  1.0674611009942D-01
    76  7.5000000000000D-01  1.0730380766234D+00  8.3633015184887D-02
    77  7.6000000000000D-01  1.0582277718831D+00  6.0299814949259D-02
    78  7.7000000000000D-01  1.0427695700742D+00  3.6783449381640D-02
    79  7.8000000000000D-01  1.0266818374276D+00  1.3121408909102D-02
    80  7.9000000000000D-01  1.0099834465721D+00 -1.0648320123916D-02
    81  8.0000000000000D-01  9.9269375410437D-01 -3.4487311400807D-02
    82  8.1000000000000D-01  9.7483257762312D-01 -5.8356755926395D-02
    83  8.2000000000000D-01  9.5642017225718D-01 -8.2217520586766D-02
    84  8.3000000000000D-01  9.3747720671565D-01 -1.0603020789112D-01
    85  8.4000000000000D-01  9.1802473888999D-01 -1.2975521680544D-01
    86  8.5000000000000D-01  8.9808419103860D-01 -1.5335280458519D-01
    87  8.6000000000000D-01  8.7767732458507D-01 -1.7678314950988D-01
    88  8.7000000000000D-01  8.5682621456207D-01 -2.0000641441856D-01
    89  8.8000000000000D-01  8.3555322373366D-01 -2.2298281094240D-01
    90  8.9000000000000D-01  8.1388097642901D-01 -2.4567266432655D-01
    91  9.0000000000000D-01  7.9183233212169D-01 -2.6803647873066D-01
    92  9.1000000000000D-01  7.6943035878865D-01 -2.9003500289471D-01
    93  9.2000000000000D-01  7.4669830608378D-01 -3.1162929605351D-01
    94  9.3000000000000D-01  7.2365957836148D-01 -3.3278079398138D-01
    95  9.4000000000000D-01  7.0033770758564D-01 -3.5345137504576D-01
    96  9.5000000000000D-01  6.7675632616021D-01 -3.7360342614678D-01
    97  9.6000000000000D-01  6.5293913971750D-01 -3.9319990841782D-01
    98  9.7000000000000D-01  6.2890989990059D-01 -4.1220442256092D-01
    99  9.8000000000000D-01  6.0469237717666D-01 -4.3058127368926D-01
   100  9.9000000000000D-01  5.8031033371760D-01 -4.4829553554829D-01
   101  1.0000000000000D+00  5.5578749638492D-01 -4.6531311398632D-01
   102  1.0100000000000D+00  5.3114752985547D-01 -4.8160080954507D-01
   103  1.0200000000000D+00  5.0641400992462D-01 -4.9712637904046D-01
   104  1.0300000000000D+00  4.8161039702329D-01 -5.1185859600443D-01
   105  1.0400000000000D+00  4.5676000998523D-01 -5.2576730985889D-01
   106  1.0500000000000D+00  4.3188600010022D-01 -5.3882350369398D-01
   107  1.0600000000000D+00  4.0701132548910D-01 -5.5099935052374D-01
   108  1.0700000000000D+00  3.8215872583561D-01 -5.6226826789420D-01
   109  1.0800000000000D+00  3.5735069750996D-01 -5.7260497072044D-01
   110  1.0900000000000D+00  3.3260946911823D-01 -5.8198552223135D-01
   111  1.1000000000000D+00  3.0795697751129D-01 -5.9038738290332D-01
   112  1.1100000000000D+00  2.8341484428627D-01 -5.9778945726723D-01
   113  1.1200000000000D+00  2.5900435281273D-01 -6.0417213847570D-01
   114  1.1300000000000D+00  2.3474642581516D-01 -6.0951735052115D-01
   115  1.1400000000000D+00  2.1066160354253D-01 -6.1380858799924D-01
   116  1.1500000000000D+00  1.8677002255443D-01 -6.1703095331627D-01
   117  1.1600000000000D+00  1.6309139515295D-01 -6.1917119124310D-01
   118  1.1700000000000D+00  1.3964498948806D-01 -6.2021772072285D-01
   119  1.1800000000000D+00  1.1644961036324D-01 -6.2016066384502D-01
   120  1.1900000000000D+00  9.3523580767064D-02 -6.1899187190411D-01
   121  1.2000000000000D+00  7.0884724155439D-02 -6.1670494846449D-01
   122  1.2100000000000D+00  4.8550347507771D-02 -6.1329526936112D-01
   123  1.2200000000000D+00  2.6537225179113D-02 -6.0875999957100D-01
   124  1.2300000000000D+00  4.8615835691346D-03 -6.0309810689615D-01
   125  1.2400000000000D+00 -1.6460913372316D-02 -5.9631037240422D-01
   126  1.2500000000000D+00 -3.7415177785264D-02 -5.8839939758230D-01
   127  1.2600000000000D+00 -5.7986710668623D-02 -5.7936960816483D-01
   128  1.2700000000000D+00 -7.8161613762229D-02 -5.6922725460050D-01
   129  1.2800000000000D+00 -9.7926600528752D-02 -5.5798040913580D-01
   130  1.2900000000000D+00 -1.1726900622319D-01 -5.4563895949773D-01
   131  1.3000000000000D+00 -1.3617679703824D-01 -5.3221459916066D-01
   132  1.3100000000000D+00 -1.5463857831732D-01 -5.1772081419925D-01
   133  1.3200000000000D+00 -1.7264360182735D-01 -5.0217286673070D-01
   134  1.3300000000000D+00 -1.9018177208417D-01 -4.8558777495424D-01
   135  1.3400000000000D+00 -2.0724365172767D-01 -4.6798428981445D-01
   136  1.3500000000000D+00 -2.2382046594259D-01 -4.4938286831112D-01
   137  1.3600000000000D+00 -2.3990410592347D-01 -4.2980564348961D-01
   138  1.3700000000000D+00 -2.5548713138564D-01 -4.0927639116210D-01
   139  1.3800000000000D+00 -2.7056277212194D-01 -3.8782049339963D-01
   140  1.3900000000000D+00 -2.8512492861027D-01 -3.6546489886050D-01
   141  1.4000000000000D+00 -2.9916817167720D-01 -3.4223808002110D-01
   142  1.4100000000000D+00 -3.1268774122230D-01 -3.1816998737282D-01
   143  1.4200000000000D+00 -3.2567954401473D-01 -2.9329200067953D-01
   144  1.4300000000000D+00 -3.3814015056874D-01 -2.6763687736957D-01
   145  1.4400000000000D+00 -3.5006679111135D-01 -2.4123869816393D-01
   146  1.4500000000000D+00 -3.6145735065535D-01 -2.1413281004387D-01
   147  1.4600000000000D+00 -3.7231036318954D-01 -1.8635576665397D-01
   148  1.4700000000000D+00 -3.8262500500621D-01 -1.5794526627341D-01
   149  1.4800000000000D+00 -3.9240108717837D-01 -1.2894008745491D-01
   150  1.4900000000000D+00 -4.0163904720956D-01 -9.9380022475166D-02
   151  1.5000000000000D+00 -4.1033993987369D-01 -6.9305808717978D-02
   152  1.5100000000000D+00 -4.1850542726675D-01 -3.8759058128837D-02
   153  1.5200000000000D+00 -4.2613776809466D-01 -7.7821848898882D-03
   154  1.5300000000000D+00 -4.3323980621732D-01  2.3581668552491D-02
   155  1.5400000000000D+00 -4.3981495847934D-01  5.5288706936354D-02
   156  1.5500000000000D+00 -4.4586720184701D-01  8.7294558977150D-02
   157  1.5600000000000D+00 -4.5140105988517D-01  1.1955435532423D-01
   158  1.5700000000000D+00 -4.5642158859656D-01  1.5202280753769D-01
   159  1.5800000000000D+00 -4.6093436165706D-01  1.8465428790717D-01
   160  1.5900000000000D+00 -4.6494545507371D-01  2.1740290995534D-01
   161  1.6000000000000D+00 -4.6846143129815D-01  2.5022260945087D-01
   162  1.6100000000000D+00 -4.7148932282643D-01  2.8306722576444D-01
   163  1.6200000000000D+00 -4.7403661531691D-01  3.1589058339337D-01
   164  1.6300000000000D+00 -4.7611123026032D-01  3.4864657348563D-01
   165  1.6400000000000D+00 -4.7772150723378D-01  3.8128923518654D-01
   166  1.6500000000000D+00 -4.7887618577438D-01  4.1377283664255D-01
   167  1.6600000000000D+00 -4.7958438690480D-01  4.4605195548047D-01
   168  1.6700000000000D+00 -4.7985559434720D-01  4.7808155860632D-01
   169  1.6800000000000D+00 -4.7969963545904D-01  5.0981708113498D-01
   170  1.6900000000000D+00 -4.7912666192643D-01  5.4121450430998D-01
   171  1.7000000000000D+00 -4.7814713025023D-01  5.7223043221636D-01
   172  1.7100000000000D+00 -4.7677178205941D-01  6.0282216716480D-01
   173  1.7200000000000D+00 -4.7501162428822D-01  6.3294778354282D-01
   174  1.7300000000000D+00 -4.7287790924993D-01  6.6256620003124D-01
   175  1.7400000000000D+00 -4.7038211464519D-01  6.9163724997827D-01
   176  1.7500000000000D+00 -4.6753592353565D-01  7.2012174984763D-01
   177  1.7600000000000D+00 -4.6435120432169D-01  7.4798156553684D-01
   178  1.7700000000000D+00 -4.6083999075317D-01  7.7517967649384D-01
   179  1.7800000000000D+00 -4.5701446201169D-01  8.0168023744439D-01
   180  1.7900000000000D+00 -4.5288692289254D-01  8.2744863765774D-01
   181  1.8000000000000D+00 -4.4846978412243D-01  8.5245155759794D-01
   182  1.8100000000000D+00 -4.4377554284241D-01  8.7665702286867D-01
   183  1.8200000000000D+00 -4.3881676328661D-01  9.0003445535875D-01
   184  1.8300000000000D+00 -4.3360605769081D-01  9.2255472145147D-01
   185  1.8400000000000D+00 -4.2815606745131D-01  9.4419017729504D-01
   186  1.8500000000000D+00 -4.2247944457744D-01  9.6491471092235D-01
   187  1.8600000000000D+00 -4.1658883344312D-01  9.8470378133845D-01
   188  1.8700000000000D+00 -4.1049685289246D-01  1.0035344542752D+00
   189  1.8800000000000D+00 -4.0421607869182D-01  1.0213854348304D+00
   190  1.8900000000000D+00 -3.9775902638631D-01  1.0382370966762D+00
   191  1.9000000000000D+00 -3.9113813455332D-01  1.0540715080430D+00
   192  1.9100000000000D+00 -3.8436574849838D-01  1.0688724542719D+00
   193  1.9200000000000D+00 -3.7745410440113D-01  1.0826254570179D+00
   194  1.9300000000000D+00 -3.7041531393045D-01  1.0953177901007D+00
   195  1.9400000000000D+00 -3.6326134936314D-01  1.1069384918859D+00
   196  1.9500000000000D+00 -3.5600402918946D-01  1.1174783744496D+00
   197  1.9600000000000D+00 -3.4865500426928D-01  1.1269300292094D+00
   198  1.9700000000000D+00 -3.4122574449816D-01  1.1352878294304D+00
   199  1.9800000000000D+00 -3.3372752604644D-01  1.1425479293066D+00
   200  1.9900000000000D+00 -3.2617141914701D-01  1.1487082599044D+00
   201  2.0000000000000D+00 -3.1856827645515D-01  1.1537685219407D+00
   202  2.0100000000000D+00 -3.1092872200294D-01  1.1577301753737D+00
   203  2.0200000000000D+00 -3.0326314071272D-01  1.1605964261511D+00
   204  2.0300000000000D+00 -2.9558166853990D-01  1.1623722098060D+00
   205  2.0400000000000D+00 -2.8789418318001D-01  1.1630641724113D+00
   206  2.0500000000000D+00 -2.8021029539724D-01  1.1626806486781D+00
   207  2.0600000000000D+00 -2.7253934095146D-01  1.1612316374468D+00
   208  2.0700000000000D+00 -2.6489037311174D-01  1.1587287747597D+00
   209  2.0800000000000D+00 -2.5727215580141D-01  1.1551853043896D+00
   210  2.0900000000000D+00 -2.4969315730539D-01  1.1506160463077D+00
   211  2.1000000000000D+00 -2.4216154460194D-01  1.1450373628962D+00
   212  2.1100000000000D+00 -2.3468517827116D-01  1.1384671232614D+00
   213  2.1200000000000D+00 -2.2727160797689D-01  1.1309246657826D+00
   214  2.1300000000000D+00 -2.1992806855203D-01  1.1224307588881D+00
   215  2.1400000000000D+00 -2.1266147661485D-01  1.1130075604916D+00
   216  2.1500000000000D+00 -2.0547842777149D-01  1.1026785759953D+00
   217  2.1600000000000D+00 -1.9838519435338D-01  1.0914686151860D+00
   218  2.1700000000000D+00 -1.9138772367480D-01  1.0794037482022D+00
   219  2.1800000000000D+00 -1.8449163684080D-01  1.0665112606230D+00
   220  2.1900000000000D+00 -1.7770222802947D-01  1.0528196080289D+00
   221  2.2000000000000D+00 -1.7102446428452D-01  1.0383583700978D+00
   222  2.2100000000000D+00 -1.6446298578554D-01  1.0231582044636D+00
   223  2.2200000000000D+00 -1.5802210655241D-01  1.0072508005436D+00
   224  2.2300000000000D+00 -1.5170581562401D-01  9.9066883349425D-01
   225  2.2400000000000D+00 -1.4551777863588D-01  9.7344591849011D-01
   226  2.2500000000000D+00 -1.3946133980540D-01  9.5561656552092D-01
   227  2.2600000000000D+00 -1.3353952431429D-01  9.3721613492748D-01
   228  2.2700000000000D+00 -1.2775504103661D-01  9.1828079375048D-01
   229  2.2800000000000D+00 -1.2211028562436D-01  8.9884747323727D-01
   230  2.2900000000000D+00 -1.1660734391451D-01  8.7895382761002D-01
   231  2.3000000000000D+00 -1.1124799562794D-01  8.5863819412727D-01
   232  2.3100000000000D+00 -1.0603371830901D-01  8.3793955839282D-01
   233  2.3200000000000D+00 -1.0096569165283D-01  8.1689751248041D-01
   234  2.3300000000000D+00 -9.6044802247757D-02  7.9555220355013D-01
   235  2.3400000000000D+00 -9.1271646724214D-02  7.7394438848108D-01
   236  2.3500000000000D+00 -8.6646539634611D-02  7.5211524956523D-01
   237  2.3600000000000D+00 -8.2169517820976D-02  7.3010640118938D-01
   238  2.3700000000000D+00 -7.7840344131022D-02  7.0795987693444D-01
   239  2.3800000000000D+00 -7.3658506437415D-02  6.8571863719588D-01
   240  2.3900000000000D+00 -6.9623231214262D-02  6.6342594722192D-01
   241  2.4000000000000D+00 -6.5733498314943D-02  6.4112487106440D-01
   242  2.4100000000000D+00 -6.1988047340962D-02  6.1885786459389D-01
   243  2.4200000000000D+00 -5.8385398452648D-02  5.9666639337665D-01
   244  2.4300000000000D+00 -5.4923864940264D-02  5.7459075523703D-01
   245  2.4400000000000D+00 -5.1601583476098D-02  5.5266886719461D-01
   246  2.4500000000000D+00 -4.8416513367786D-02  5.3093705273286D-01
   247  2.4600000000000D+00 -4.5366452663250D-02  5.0942977325776D-01
   248  2.4700000000000D+00 -4.2449047606686D-02  4.8817999024643D-01
   249  2.4800000000000D+00 -3.9661807065762D-02  4.6721879086763D-01
   250  2.4900000000000D+00 -3.7002113453910D-02  4.4657547359454D-01
   251  2.5000000000000D+00 -3.4467233626866D-02  4.2627758337598D-01
   252  2.5100000000000D+00 -3.2054330434829D-02  4.0635086468055D-01
   253  2.5200000000000D+00 -2.9760473419326D-02  3.8681927140494D-01
   254  2.5300000000000D+00 -2.7582649371977D-02  3.6770496837277D-01
   255  2.5400000000000D+00 -2.5517772537465D-02  3.4902833659333D-01
   256  2.5500000000000D+00 -2.3562694554658D-02  3.3080798134268D-01
   257  2.5600000000000D+00 -2.1714214108207D-02  3.1306074324061D-01
   258  2.5700000000000D+00 -1.9969086196815D-02  2.9580171313227D-01
   259  2.5800000000000D+00 -1.8324031121121D-02  2.7904424972929D-01
   260  2.5900000000000D+00 -1.6775743173605D-02  2.6280000009366D-01
   261  2.6000000000000D+00 -1.5320898919716D-02  2.4707892394889D-01
   262  2.6100000000000D+00 -1.3956165185534D-02  2.3188932063855D-01
   263  2.6200000000000D+00 -1.2678206751966D-02  2.1723785865244D-01
   264  2.6300000000000D+00 -1.1483693615343D-02  2.0312960899060D-01
   265  2.6400000000000D+00 -1.0369307953063D-02  1.8956808095455D-01
   266  2.6500000000000D+00 -9.3317507972887D-03  1.7655526026416D-01
   267  2.6600000000000D+00 -8.3677482721518D-03  1.6409165080310D-01
   268  2.6700000000000D+00 -7.4740575320572D-03  1.5217631859935D-01
   269  2.6800000000000D+00 -6.6474724062288D-03  1.4080693792526D-01
   270  2.6900000000000D+00 -5.8848286343544D-03  1.2997984051855D-01
   271  2.7000000000000D+00 -5.1830087861700D-03  1.1969006697331D-01
   272  2.7100000000000D+00 -4.5389468943735D-03  1.0993141996101D-01
   273  2.7200000000000D+00 -3.9496327219264D-03  1.0069651992268D-01
   274  2.7300000000000D+00 -3.4121156941580D-03  9.1976862873972D-02
   275  2.7400000000000D+00 -2.9235085554865D-03  8.3762879710719D-02
   276  2.7500000000000D+00 -2.4809907172518D-03  7.6043997236013D-02
   277  2.7600000000000D+00 -2.0818112522730D-03  6.8808701205926D-02
   278  2.7700000000000D+00 -1.7232916295696D-03  6.2044600503268D-02
   279  2.7800000000000D+00 -1.4028282034625D-03  5.5738492274995D-02
   280  2.7900000000000D+00 -1.1178943355897D-03  4.9876428900970D-02
   281  2.8000000000000D+00 -8.6604229531182D-04  4.4443785545773D-02
   282  2.8100000000000D+00 -6.4490492893834D-04  3.9425328337559D-02
   283  2.8200000000000D+00 -4.5219702410729D-04  3.4805283561978D-02
   284  2.8300000000000D+00 -2.8571644958898D-04  3.0567407221406D-02
   285  2.8400000000000D+00 -1.4334508494819D-04  2.6695054800450D-02
   286  2.8500000000000D+00 -2.3049525334981D-05  2.3171251203413D-02
   287  2.8600000000000D+00  7.7118445518455D-05  1.9978760768763D-02
   288  2.8700000000000D+00  1.5902156010581D-04  1.7100156963639D-02
   289  2.8800000000000D+00  2.2443693657624D-04  1.4517891737234D-02
   290  2.8900000000000D+00  2.7505616121950D-04  1.2214364279720D-02
   291  2.9000000000000D+00  3.1248550663856D-04  1.0171989028393D-02
   292  2.9100000000000D+00  3.3824629974896D-04  8.3732629125930D-03
   293  2.9200000000000D+00  3.5377542874905D-04  6.8008313535829D-03
   294  2.9300000000000D+00  3.6042597361287D-04  5.4375529621246D-03
   295  2.9400000000000D+00  3.5946794452737D-04  4.2665628645127D-03
   296  2.9500000000000D+00  3.5208913246235D-04  3.2713348303403D-03
   297  2.9600000000000D+00  3.3939602163965D-04  2.4357408375783D-03
   298  2.9700000000000D+00  3.2241478597161D-04  1.7441091091813D-03
   299  2.9800000000000D+00  3.0209237017495D-04  1.1812804897042D-03
   300  2.9900000000000D+00  2.7929759355235D-04  7.3266201630539D-04
   301  3.0000000000000D+00  2.5482228851839D-04  3.8427802403090D-04
   302  3.0100000000000D+00  2.2938246844354D-04  1.2281880007494D-04
   303  3.0200000000000D+00  2.0361957807286D-04 -6.4312292040331D-05
   304  3.0300000000000D+00  1.7810163008747D-04 -1.8895656780702D-04
   305  3.0400000000000D+00  1.5332439995708D-04 -2.6215959264831D-04
   306  3.0500000000000D+00  1.2971263077879D-04 -2.9413342884509D-04
   307  3.0600000000000D+00  1.0762119400408D-04 -2.9422236140080D-04
   308  3.0700000000000D+00  8.7336160735681D-05 -2.7087278815761D-04
   309  3.0800000000000D+00  6.9068018271483D-05 -2.3144959469765D-04
   310  3.0900000000000D+00  5.2978784326102D-05 -1.8272933376227D-04
   311  3.1000000000000D+00  3.9160474837766D-05 -1.3043391220078D-04
   312  3.1100000000000D+00  2.7634708978371D-05 -7.9275436977015D-05
   313  3.1200000000000D+00  1.8356239872973D-05 -3.3309232900250D-05
   314  3.1300000000000D+00  1.1203607164121D-05  6.1703863098824D-06
   315  3.1400000000000D+00  5.9953965287951D-06  3.8038229662472D-05
   316  3.1500000000000D+00  2.5179694284028D-06  6.2520948649692D-05
   317  3.1600000000000D+00  4.8741778390088D-07  7.9466694048234D-05
   318  3.1700000000000D+00 -4.8231813633831D-07  8.6758716023034D-05
   319  3.1800000000000D+00 -7.3895368506926D-07  8.4092110389359D-05
   320  3.1900000000000D+00 -6.5641700730517D-07  6.9844700136114D-05
   321  3.2000000000000D+00 -4.4473766463624D-07  4.7821169580601D-05
   322  3.2100000000000D+00 -2.0835295524703D-07  2.4180461869499D-05
   323  3.2200000000000D+00 -2.7473089511415D-08  3.5776881479549D-06
   324  3.2300000000000D+00  8.1591257821712D-08 -6.5936669264359D-06
   325  3.2400000000000D+00  1.0877154733177D-07 -8.7435240635353D-06
   326  3.2500000000000D+00  7.1917585509885D-08 -5.7793483669558D-06
   327  3.2600000000000D+00  5.3291587003272D-09 -4.2945690486933D-07
   328  3.2700000000000D+00 -2.2087612426146D-08  1.5154340134810D-06
   329  3.2800000000000D+00 -2.9392772989286D-08  1.9893221478184D-06
   330  3.2900000000000D+00 -1.9661408465407D-08  1.3152867237268D-06
   331  3.3000000000000D+00  1.8840276451893D-11 -2.1174140004531D-09
   332  3.3100000000000D+00  1.5727636542032D-09 -1.7675917810001D-07
   333  3.3200000000000D+00  2.0161347218219D-09 -2.2658860116441D-07
   334  3.3300000000000D+00  1.3190746185558D-09 -1.4824766887599D-07
   335  3.3400000000000D+00  0.0000000000000D+00  0.0000000000000D+00
   336  3.3500000000000D+00  0.0000000000000D+00  0.0000000000000D+00
   337  3.3600000000000D+00  0.0000000000000D+00  0.0000000000000D+00
   338  3.3700000000000D+00  0.0000000000000D+00  0.0000000000000D+00
   339  3.3800000000000D+00  0.0000000000000D+00  0.0000000000000D+00
   340  3.3900000000000D+00  0.0000000000000D+00  0.0000000000000D+00
   341  3.4000000000000D+00  0.0000000000000D+00  0.0000000000000D+00
   342  3.4100000000000D+00  0.0000000000000D+00  0.0000000000000D+00
   343  3.4200000000000D+00  0.0000000000000D+00  0.0000000000000D+00
   344  3.4300000000000D+00  0.0000000000000D+00  0.0000000000000D+00
   345  3.4400000000000D+00  0.0000000000000D+00  0.0000000000000D+00
   346  3.4500000000000D+00  0.0000000000000D+00  0.0000000000000D+00
   347  3.4600000000000D+00  0.0000000000000D+00  0.0000000000000D+00
   348  3.4700000000000D+00  0.0000000000000D+00  0.0000000000000D+00
   349  3.4800000000000D+00  0.0000000000000D+00  0.0000000000000D+00
   350  3.4900000000000D+00  0.0000000000000D+00  0.0000000000000D+00
   351  3.5000000000000D+00  0.0000000000000D+00  0.0000000000000D+00
   352  3.5100000000000D+00  0.0000000000000D+00  0.0000000000000D+00
   353  3.5200000000000D+00  0.0000000000000D+00  0.0000000000000D+00
   354  3.5300000000000D+00  0.0000000000000D+00  0.0000000000000D+00
   355  3.5400000000000D+00  0.0000000000000D+00  0.0000000000000D+00
   356  3.5500000000000D+00  0.0000000000000D+00  0.0000000000000D+00
   357  3.5600000000000D+00  0.0000000000000D+00  0.0000000000000D+00
   358  3.5700000000000D+00  0.0000000000000D+00  0.0000000000000D+00
   359  3.5800000000000D+00  0.0000000000000D+00  0.0000000000000D+00
   360  3.5900000000000D+00  0.0000000000000D+00  0.0000000000000D+00
   361  3.6000000000000D+00  0.0000000000000D+00  0.0000000000000D+00
   362  3.6100000000000D+00  0.0000000000000D+00  0.0000000000000D+00
   363  3.6200000000000D+00  0.0000000000000D+00  0.0000000000000D+00
   364  3.6300000000000D+00  0.0000000000000D+00  0.0000000000000D+00
   365  3.6400000000000D+00  0.0000000000000D+00  0.0000000000000D+00
   366  3.6500000000000D+00  0.0000000000000D+00  0.0000000000000D+00
   367  3.6600000000000D+00  0.0000000000000D+00  0.0000000000000D+00
   368  3.6700000000000D+00  0.0000000000000D+00  0.0000000000000D+00
   369  3.6800000000000D+00  0.0000000000000D+00  0.0000000000000D+00
   370  3.6900000000000D+00  0.0000000000000D+00  0.0000000000000D+00
   371  3.7000000000000D+00  0.0000000000000D+00  0.0000000000000D+00
   372  3.7100000000000D+00  0.0000000000000D+00  0.0000000000000D+00
   373  3.7200000000000D+00  0.0000000000000D+00  0.0000000000000D+00
   374  3.7300000000000D+00  0.0000000000000D+00  0.0000000000000D+00
   375  3.7400000000000D+00  0.0000000000000D+00  0.0000000000000D+00
   376  3.7500000000000D+00  0.0000000000000D+00  0.0000000000000D+00
   377  3.7600000000000D+00  0.0000000000000D+00  0.0000000000000D+00
   378  3.7700000000000D+00  0.0000000000000D+00  0.0000000000000D+00
   379  3.7800000000000D+00  0.0000000000000D+00  0.0000000000000D+00
   380  3.7900000000000D+00  0.0000000000000D+00  0.0000000000000D+00
   381  3.8000000000000D+00  0.0000000000000D+00  0.0000000000000D+00
   382  3.8100000000000D+00  0.0000000000000D+00  0.0000000000000D+00
   383  3.8200000000000D+00  0.0000000000000D+00  0.0000000000000D+00
   384  3.8300000000000D+00  0.0000000000000D+00  0.0000000000000D+00
   385  3.8400000000000D+00  0.0000000000000D+00  0.0000000000000D+00
   386  3.8500000000000D+00  0.0000000000000D+00  0.0000000000000D+00
   387  3.8600000000000D+00  0.0000000000000D+00  0.0000000000000D+00
   388  3.8700000000000D+00  0.0000000000000D+00  0.0000000000000D+00
   389  3.8800000000000D+00  0.0000000000000D+00  0.0000000000000D+00
   390  3.8900000000000D+00  0.0000000000000D+00  0.0000000000000D+00
   391  3.9000000000000D+00  0.0000000000000D+00  0.0000000000000D+00
   392  3.9100000000000D+00  0.0000000000000D+00  0.0000000000000D+00
   393  3.9200000000000D+00  0.0000000000000D+00  0.0000000000000D+00
   394  3.9300000000000D+00  0.0000000000000D+00  0.0000000000000D+00
   395  3.9400000000000D+00  0.0000000000000D+00  0.0000000000000D+00
   396  3.9500000000000D+00  0.0000000000000D+00  0.0000000000000D+00
   397  3.9600000000000D+00  0.0000000000000D+00  0.0000000000000D+00
   398  3.9700000000000D+00  0.0000000000000D+00  0.0000000000000D+00
   399  3.9800000000000D+00  0.0000000000000D+00  0.0000000000000D+00
   400  3.9900000000000D+00  0.0000000000000D+00  0.0000000000000D+00
   401  4.0000000000000D+00  0.0000000000000D+00  0.0000000000000D+00
   402  4.0100000000000D+00  0.0000000000000D+00  0.0000000000000D+00
   403  4.0200000000000D+00  0.0000000000000D+00  0.0000000000000D+00
   404  4.0300000000000D+00  0.0000000000000D+00  0.0000000000000D+00
   405  4.0400000000000D+00  0.0000000000000D+00  0.0000000000000D+00
   406  4.0500000000000D+00  0.0000000000000D+00  0.0000000000000D+00
   407  4.0600000000000D+00  0.0000000000000D+00  0.0000000000000D+00
   408  4.0700000000000D+00  0.0000000000000D+00  0.0000000000000D+00
   409  4.0800000000000D+00  0.0000000000000D+00  0.0000000000000D+00
   410  4.0900000000000D+00  0.0000000000000D+00  0.0000000000000D+00
   411  4.1000000000000D+00  0.0000000000000D+00  0.0000000000000D+00
   412  4.1100000000000D+00  0.0000000000000D+00  0.0000000000000D+00
   413  4.1200000000000D+00  0.0000000000000D+00  0.0000000000000D+00
   414  4.1300000000000D+00  0.0000000000000D+00  0.0000000000000D+00
   415  4.1400000000000D+00  0.0000000000000D+00  0.0000000000000D+00
   416  4.1500000000000D+00  0.0000000000000D+00  0.0000000000000D+00
   417  4.1600000000000D+00  0.0000000000000D+00  0.0000000000000D+00
   418  4.1700000000000D+00  0.0000000000000D+00  0.0000000000000D+00
   419  4.1800000000000D+00  0.0000000000000D+00  0.0000000000000D+00
   420  4.1900000000000D+00  0.0000000000000D+00  0.0000000000000D+00
   421  4.2000000000000D+00  0.0000000000000D+00  0.0000000000000D+00
   422  4.2100000000000D+00  0.0000000000000D+00  0.0000000000000D+00