Rb    ONCVPSP-3.3.1  r_core=   3.18390   3.03555   2.89411
     37.0000      9.0000      210904    zatom,zion,pspd
     8      11   2     4   600     0    pspcod,pspxc,lmax,lloc,mmax,r2well
  5.99000000  0.00000000  0.00000000    rchrg fchrg qchrg
     2     4     3     0    nproj
     3     1           extension_switch
     4     3     0    nprojso
   0                        -7.2108307802217D-02  1.3309924726410D+00
     1  0.0000000000000D+00  2.8277380437203D-13 -5.8564264548977D-14
     2  1.0000000000000D-02  2.1612876196124D-02  3.3976682292574D-02
     3  2.0000000000000D-02  4.3193741009908D-02  6.7925906808687D-02
     4  3.0000000000000D-02  6.4710623160604D-02  1.0182024198590D-01
     5  4.0000000000000D-02  8.6131631544329D-02  1.3563230866504D-01
     6  5.0000000000000D-02  1.0742499525662D-01  1.6933480622974D-01
     7  6.0000000000000D-02  1.2855910353575D-01  2.0290053867172D-01
     8  7.0000000000000D-02  1.4950254559993D-01  2.3630244055681D-01
     9  8.0000000000000D-02  1.7022415035149D-01  2.6951360286728D-01
    10  9.0000000000000D-02  1.9069302592040D-01  3.0250729869569D-01
    11  1.0000000000000D-01  2.1087859901935D-01  3.3525700876580D-01
    12  1.1000000000000D-01  2.3075065408196D-01  3.6773644675614D-01
    13  1.2000000000000D-01  2.5027937215510D-01  3.9991958440185D-01
    14  1.3000000000000D-01  2.6943536951572D-01  4.3178067635064D-01
    15  1.4000000000000D-01  2.8818973598193D-01  4.6329428474880D-01
    16  1.5000000000000D-01  3.0651407288721D-01  4.9443530353330D-01
    17  1.6000000000000D-01  3.2438053068599D-01  5.2517898240644D-01
    18  1.7000000000000D-01  3.4176184615792D-01  5.5550095046923D-01
    19  1.8000000000000D-01  3.5863137917723D-01  5.8537723949042D-01
    20  1.9000000000000D-01  3.7496314901299D-01  6.1478430678789D-01
    21  2.0000000000000D-01  3.9073187012468D-01  6.4369905769965D-01
    22  2.1000000000000D-01  4.0591298741706D-01  6.7209886762173D-01
    23  2.2000000000000D-01  4.2048271091699D-01  6.9996160359070D-01
    24  2.3000000000000D-01  4.3441804983421D-01  7.2726564538869D-01
    25  2.4000000000000D-01  4.4769684596695D-01  7.5398990614925D-01
    26  2.5000000000000D-01  4.6029780641239D-01  7.8011385244260D-01
    27  2.6000000000000D-01  4.7220053554120D-01  8.0561752381927D-01
    28  2.7000000000000D-01  4.8338556619426D-01  8.3048155179134D-01
    29  2.8000000000000D-01  4.9383439005916D-01  8.5468717823119D-01
    30  2.9000000000000D-01  5.0352948718297D-01  8.7821627316771D-01
    31  3.0000000000000D-01  5.1245435457729D-01  9.0105135196068D-01
    32  3.1000000000000D-01  5.2059353387063D-01  9.2317559183430D-01
    33  3.2000000000000D-01  5.2793263796298D-01  9.4457284775135D-01
    34  3.3000000000000D-01  5.3445837663633D-01  9.6522766761018D-01
    35  3.4000000000000D-01  5.4015858107504D-01  9.8512530674688D-01
    36  3.5000000000000D-01  5.4502222724910D-01  1.0042517417259D+00
    37  3.6000000000000D-01  5.4903945811329D-01  1.0225936834028D+00
    38  3.7000000000000D-01  5.5220160457524D-01  1.0401385892432D+00
    39  3.8000000000000D-01  5.5450120518482D-01  1.0568746748837D+00
    40  3.9000000000000D-01  5.5593202449805D-01  1.0727909249185D+00
    41  4.0000000000000D-01  5.5648907006827D-01  1.0878771029007D+00
    42  4.1000000000000D-01  5.5616860801803D-01  1.1021237605427D+00
    43  4.2000000000000D-01  5.5496817714552D-01  1.1155222461046D+00
    44  4.3000000000000D-01  5.5288660151982D-01  1.1280647119595D+00
    45  4.4000000000000D-01  5.4992400152018D-01  1.1397441213233D+00
    46  4.5000000000000D-01  5.4608180327531D-01  1.1505542541410D+00
    47  4.6000000000000D-01  5.4136274645974D-01  1.1604897121187D+00
    48  4.7000000000000D-01  5.3577089040546D-01  1.1695459228941D+00
    49  4.8000000000000D-01  5.2931161848857D-01  1.1777191433373D+00
    50  4.9000000000000D-01  5.2199164075178D-01  1.1850064619759D+00
    51  5.0000000000000D-01  5.1381899472601D-01  1.1914058005383D+00
    52  5.1000000000000D-01  5.0480304441524D-01  1.1969159146111D+00
    53  5.2000000000000D-01  4.9495447741163D-01  1.2015363934061D+00
    54  5.3000000000000D-01  4.8428530010951D-01  1.2052676586351D+00
    55  5.4000000000000D-01  4.7280883098960D-01  1.2081109624895D+00
    56  5.5000000000000D-01  4.6053969194687D-01  1.2100683847254D+00
    57  5.6000000000000D-01  4.4749379763852D-01  1.2111428288528D+00
    58  5.7000000000000D-01  4.3368834283129D-01  1.2113380174322D+00
    59  5.8000000000000D-01  4.1914178772988D-01  1.2106584864790D+00
    60  5.9000000000000D-01  4.0387384127207D-01  1.2091095789804D+00
    61  6.0000000000000D-01  3.8790544237875D-01  1.2066974375295D+00
    62  6.1000000000000D-01  3.7125873915090D-01  1.2034289960807D+00
    63  6.2000000000000D-01  3.5395706600900D-01  1.1993119708352D+00
    64  6.3000000000000D-01  3.3602491877373D-01  1.1943548502630D+00
    65  6.4000000000000D-01  3.1748792769121D-01  1.1885668842706D+00
    66  6.5000000000000D-01  2.9837282840937D-01  1.1819580725253D+00
    67  6.6000000000000D-01  2.7870743091637D-01  1.1745391519461D+00
    68  6.7000000000000D-01  2.5852058645593D-01  1.1663215833748D+00
    69  6.8000000000000D-01  2.3784215243895D-01  1.1573175374392D+00
    70  6.9000000000000D-01  2.1670295537459D-01  1.1475398796254D+00
    71  7.0000000000000D-01  1.9513475184882D-01  1.1370021545716D+00
    72  7.1000000000000D-01  1.7317018758257D-01  1.1257185696039D+00
    73  7.2000000000000D-01  1.5084275460603D-01  1.1137039775283D+00
    74  7.3000000000000D-01  1.2818674659065D-01  1.1009738587014D+00
    75  7.4000000000000D-01  1.0523721238397D-01  1.0875443023974D+00
    76  7.5000000000000D-01  8.2029907798026D-02  1.0734319874930D+00
    77  7.6000000000000D-01  5.8601245705854D-02  1.0586541624935D+00
    78  7.7000000000000D-01  3.4988244505266D-02  1.0432286249224D+00
    79  7.8000000000000D-01  1.1228475013946D-02  1.0271737000982D+00
    80  7.9000000000000D-01 -1.2639994136117D-02  1.0105082193246D+00
    81  8.0000000000000D-01 -3.6578652532177D-02  9.9325149752043D-01
    82  8.1000000000000D-01 -6.0548605365196D-02  9.7542331031430D-01
    83  8.2000000000000D-01 -8.4510632084168D-02  9.5704387063481D-01
    84  8.3000000000000D-01 -1.0842524623471D-01  9.3813380482276D-01
    85  8.4000000000000D-01 -1.3225275639267D-01  9.1871412829622D-01
    86  8.5000000000000D-01 -1.5595332809926D-01  8.9880622079846D-01
    87  8.6000000000000D-01 -1.7948704670048D-01  8.7843180125996D-01
    88  8.7000000000000D-01 -2.0281398099019D-01  8.5761290230638D-01
    89  8.8000000000000D-01 -2.2589424755220D-01  8.3637184444507D-01
    90  8.9000000000000D-01 -2.4868807569399D-01  8.1473120996313D-01
    91  9.0000000000000D-01 -2.7115587286127D-01  7.9271381657093D-01
    92  9.1000000000000D-01 -2.9325829041931D-01  7.7034269082523D-01
    93  9.2000000000000D-01 -3.1495628968506D-01  7.4764104136667D-01
    94  9.3000000000000D-01 -3.3621120809075D-01  7.2463223200682D-01
    95  9.4000000000000D-01 -3.5698482535809D-01  7.0133975470028D-01
    96  9.5000000000000D-01 -3.7723942955940D-01  6.7778720243773D-01
    97  9.6000000000000D-01 -3.9693788294100D-01  6.5399824209605D-01
    98  9.7000000000000D-01 -4.1604368738236D-01  6.2999658728180D-01
    99  9.8000000000000D-01 -4.3452104936285D-01  6.0580597120462D-01
   100  9.9000000000000D-01 -4.5233494430794D-01  5.8145011961702D-01
   101  1.0000000000000D+00 -4.6945118018517D-01  5.5695272385726D-01
   102  1.0100000000000D+00 -4.8583646022014D-01  5.3233741403192D-01
   103  1.0200000000000D+00 -5.0145844460281D-01  5.0762773237447D-01
   104  1.0300000000000D+00 -5.1628581105470D-01  4.8284710681641D-01
   105  1.0400000000000D+00 -5.3028831412776D-01  4.5801882480696D-01
   106  1.0500000000000D+00 -5.4343684310694D-01  4.3316600741722D-01
   107  1.0600000000000D+00 -5.5570347838943D-01  4.0831158376430D-01
   108  1.0700000000000D+00 -5.6706154621548D-01  3.8347826579044D-01
   109  1.0800000000000D+00 -5.7748567162673D-01  3.5868852343202D-01
   110  1.0900000000000D+00 -5.8695182953104D-01  3.3396456021230D-01
   111  1.1000000000000D+00 -5.9543739375481D-01  3.0932828929167D-01
   112  1.1100000000000D+00 -6.0292118396661D-01  2.8480131000817D-01
   113  1.1200000000000D+00 -6.0938351035922D-01  2.6040488494054D-01
   114  1.1300000000000D+00 -6.1480621598035D-01  2.3615991752522D-01
   115  1.1400000000000D+00 -6.1917271660641D-01  2.1208693025794D-01
   116  1.1500000000000D+00 -6.2246803805762D-01  1.8820604350954D-01
   117  1.1600000000000D+00 -6.2467885085706D-01  1.6453695498488D-01
   118  1.1700000000000D+00 -6.2579350214052D-01  1.4109891985266D-01
   119  1.1800000000000D+00 -6.2580204472974D-01  1.1791073157289D-01
   120  1.1900000000000D+00 -6.2469626328684D-01  9.4990703447539D-02
   121  1.2000000000000D+00 -6.2246969747172D-01  7.2356650919099D-02
   122  1.2100000000000D+00 -6.1911766203153D-01  5.0025874640293D-02
   123  1.2200000000000D+00 -6.1463726375728D-01  2.8015144336915D-02
   124  1.2300000000000D+00 -6.0902741524807D-01  6.3406834846370D-03
   125  1.2400000000000D+00 -6.0228884542882D-01 -1.4981845180484D-02
   126  1.2500000000000D+00 -5.9442410677703D-01 -3.5937353300023D-02
   127  1.2600000000000D+00 -5.8543757921948D-01 -5.6511339663083D-02
   128  1.2700000000000D+00 -5.7533547066316D-01 -7.6689902092144D-02
   129  1.2800000000000D+00 -5.6412581413851D-01 -9.6459748431712D-02
   130  1.2900000000000D+00 -5.5181846153713D-01 -1.1580820662749D-01
   131  1.3000000000000D+00 -5.3842507392865D-01 -1.3472323388435D-01
   132  1.3100000000000D+00 -5.2395910845896D-01 -1.5319342489480D-01
   133  1.3200000000000D+00 -5.0843580183269D-01 -1.7120801913019D-01
   134  1.3300000000000D+00 -4.9187215038793D-01 -1.8875690718732D-01
   135  1.3400000000000D+00 -4.7428688678950D-01 -2.0583063618764D-01
   136  1.3500000000000D+00 -4.5570045336378D-01 -2.2242041422482D-01
   137  1.3600000000000D+00 -4.3613497210851D-01 -2.3851811385931D-01
   138  1.3700000000000D+00 -4.1561421142847D-01 -2.5411627466155D-01
   139  1.3800000000000D+00 -3.9416354963639D-01 -2.6920810480358D-01
   140  1.3900000000000D+00 -3.7180993528494D-01 -2.8378748170396D-01
   141  1.4000000000000D+00 -3.4858184439583D-01 -2.9784895173140D-01
   142  1.4100000000000D+00 -3.2450923464945D-01 -3.1138772897140D-01
   143  1.4200000000000D+00 -2.9962349662991D-01 -3.2439969306751D-01
   144  1.4300000000000D+00 -2.7395740219904D-01 -3.3688138614390D-01
   145  1.4400000000000D+00 -2.4754505010135D-01 -3.4883000882204D-01
   146  1.4500000000000D+00 -2.2042180890307D-01 -3.6024341534505D-01
   147  1.4600000000000D+00 -1.9262425736142D-01 -3.7112010782110D-01
   148  1.4700000000000D+00 -1.6419012235680D-01 -3.8145922960593D-01
   149  1.4800000000000D+00 -1.3515821448756D-01 -3.9126055783702D-01
   150  1.4900000000000D+00 -1.0556836147124D-01 -4.0052449514188D-01
   151  1.5000000000000D+00 -7.5461339473380D-02 -4.0925206053799D-01
   152  1.5100000000000D+00 -4.4878802502997D-02 -4.1744487954602D-01
   153  1.5200000000000D+00 -1.3863210023633D-02 -4.2510517354051D-01
   154  1.5300000000000D+00  1.7542247087719D-02 -4.3223574835793D-01
   155  1.5400000000000D+00  4.9293722062478D-02 -4.3883998219251D-01
   156  1.5500000000000D+00  8.1346789111085D-02 -4.4492181279918D-01
   157  1.5600000000000D+00  1.1365652146144D-01 -4.5048572403731D-01
   158  1.5700000000000D+00  1.4617757042186D-01 -4.5553673177753D-01
   159  1.5800000000000D+00  1.7886424529005D-01 -4.6008036920500D-01
   160  1.5900000000000D+00  2.1167059395050D-01 -4.6412267154584D-01
   161  1.6000000000000D+00  2.4455048398517D-01 -4.6767016024932D-01
   162  1.6100000000000D+00  2.7745768413070D-01 -4.7072982665643D-01
   163  1.6200000000000D+00  3.1034594590759D-01 -4.7330911518663D-01
   164  1.6300000000000D+00  3.4316908525187D-01 -4.7541590607661D-01
   165  1.6400000000000D+00  3.7588106397251D-01 -4.7705849770266D-01
   166  1.6500000000000D+00  4.0843607086866D-01 -4.7824558852223D-01
   167  1.6600000000000D+00  4.4078860232485D-01 -4.7898625866700D-01
   168  1.6700000000000D+00  4.7289354222832D-01 -4.7928995122353D-01
   169  1.6800000000000D+00  5.0470624101922D-01 -4.7916645323495D-01
   170  1.6900000000000D+00  5.3618259373296D-01 -4.7862587645933D-01
   171  1.7000000000000D+00  5.6727911683739D-01 -4.7767863791970D-01
   172  1.7100000000000D+00  5.9795302374275D-01 -4.7633544028011D-01
   173  1.7200000000000D+00  6.2816229878008D-01 -4.7460725208422D-01
   174  1.7300000000000D+00  6.5786576954591D-01 -4.7250528788897D-01
   175  1.7400000000000D+00  6.8702317740567D-01 -4.7004098833143D-01
   176  1.7500000000000D+00  7.1559524607148D-01 -4.6722600015910D-01
   177  1.7600000000000D+00  7.4354374805097D-01 -4.6407215626270D-01
   178  1.7700000000000D+00  7.7083156889433D-01 -4.6059145574001D-01
   179  1.7800000000000D+00  7.9742276905240D-01 -4.5679604402933D-01
   180  1.7900000000000D+00  8.2328264327279D-01 -4.5269819314056D-01
   181  1.8000000000000D+00  8.4837777738120D-01 -4.4831028201982D-01
   182  1.8100000000000D+00  8.7267610235576D-01 -4.4364477707724D-01
   183  1.8200000000000D+00  8.9614694560122D-01 -4.3871421290808D-01
   184  1.8300000000000D+00  9.1876107928594D-01 -4.3353117324138D-01
   185  1.8400000000000D+00  9.4049076573884D-01 -4.2810827213657D-01
   186  1.8500000000000D+00  9.6130979969431D-01 -4.2245813547106D-01
   187  1.8600000000000D+00  9.8119354750329D-01 -4.1659338272448D-01
   188  1.8700000000000D+00  1.0001189830097D+00 -4.1052660911433D-01
   189  1.8800000000000D+00  1.0180647203093D+00 -4.0427036807545D-01
   190  1.8900000000000D+00  1.0350110430766D+00 -3.9783715414132D-01
   191  1.9000000000000D+00  1.0509399306634D+00 -3.9123938621969D-01
   192  1.9100000000000D+00  1.0658350807652D+00 -3.8448939130785D-01
   193  1.9200000000000D+00  1.0796819287351D+00 -3.7759938865528D-01
   194  1.9300000000000D+00  1.0924676635419D+00 -3.7058147439284D-01
   195  1.9400000000000D+00  1.1041812402573D+00 -3.6344760666268D-01
   196  1.9500000000000D+00  1.1148133893224D+00 -3.5620959123245D-01
   197  1.9600000000000D+00  1.1243566222781D+00 -3.4887906765735D-01
   198  1.9700000000000D+00  1.1328052343671D+00 -3.4146749594951D-01
   199  1.9800000000000D+00  1.1401553037083D+00 -3.3398614381774D-01
   200  1.9900000000000D+00  1.1464046873300D+00 -3.2644607445340D-01
   201  2.0000000000000D+00  1.1515530140341D+00 -3.1885813488577D-01
   202  2.0100000000000D+00  1.1556016740694D+00 -3.1123294492957D-01
   203  2.0200000000000D+00  1.1585538059596D+00 -3.0358088668904D-01
   204  2.0300000000000D+00  1.1604142801743D+00 -2.9591209468906D-01
   205  2.0400000000000D+00  1.1611896801559D+00 -2.8823644656821D-01
   206  2.0500000000000D+00  1.1608882804862D+00 -2.8056355439105D-01
   207  2.0600000000000D+00  1.1595200224425D+00 -2.7290275655685D-01
   208  2.0700000000000D+00  1.1570964871314D+00 -2.6526311029276D-01
   209  2.0800000000000D+00  1.1536308660747D+00 -2.5765338477644D-01
   210  2.0900000000000D+00  1.1491379297313D+00 -2.5008205481930D-01
   211  2.1000000000000D+00  1.1436339937605D+00 -2.4255729517232D-01
   212  2.1100000000000D+00  1.1371368833811D+00 -2.3508697540695D-01
   213  2.1200000000000D+00  1.1296658959639D+00 -2.2767865536795D-01
   214  2.1300000000000D+00  1.1212417618473D+00 -2.2033958122818D-01
   215  2.1400000000000D+00  1.1118866038098D+00 -2.1307668207322D-01
   216  2.1500000000000D+00  1.1016238951064D+00 -2.0589656707079D-01
   217  2.1600000000000D+00  1.0904784163934D+00 -1.9880552317424D-01
   218  2.1700000000000D+00  1.0784762117225D+00 -1.9180951334523D-01
   219  2.1800000000000D+00  1.0656445436532D+00 -1.8491417532589D-01
   220  2.1900000000000D+00  1.0520118478326D+00 -1.7812482088484D-01
   221  2.2000000000000D+00  1.0376076871098D+00 -1.7144643557284D-01
   222  2.2100000000000D+00  1.0224627054084D+00 -1.6488367895588D-01
   223  2.2200000000000D+00  1.0066085815657D+00 -1.5844088528212D-01
   224  2.2300000000000D+00  9.9007798329767D-01 -1.5212206462302D-01
   225  2.2400000000000D+00  9.7290452148442D-01 -1.4593090441344D-01
   226  2.2500000000000D+00  9.5512270497189D-01 -1.3987077139953D-01
   227  2.2600000000000D+00  9.3676789610971D-01 -1.3394471398413D-01
   228  2.2700000000000D+00  9.1787626710036D-01 -1.2815546491816D-01
   229  2.2800000000000D+00  8.9848475750413D-01 -1.2250544435020D-01
   230  2.2900000000000D+00  8.7863103300376D-01 -1.1699676319826D-01
   231  2.3000000000000D+00  8.5835344546101D-01 -1.1163122681415D-01
   232  2.3100000000000D+00  8.3769099822311D-01 -1.0641033889156D-01
   233  2.3200000000000D+00  8.1668330423313D-01 -1.0133530575787D-01
   234  2.3300000000000D+00  7.9537053461723D-01 -9.6407041075734D-02
   235  2.3400000000000D+00  7.7379347341092D-01 -9.1626169011856D-02
   236  2.3500000000000D+00  7.5199333306000D-01 -8.6993032000149D-02
   237  2.3600000000000D+00  7.3001176113167D-01 -8.2507695102219D-02
   238  2.3700000000000D+00  7.0789082743042D-01 -7.8169949705838D-02
   239  2.3800000000000D+00  6.8567353218059D-01 -7.3979312822648D-02
   240  2.3900000000000D+00  6.6340318338096D-01 -6.9935040299726D-02
   241  2.4000000000000D+00  6.4112289015277D-01 -6.6036141297764D-02
   242  2.4100000000000D+00  6.1887515539228D-01 -6.2281384419993D-02
   243  2.4200000000000D+00  5.9670149304939D-01 -5.8669318291383D-02
   244  2.4300000000000D+00  5.7464225043314D-01 -5.5198284017478D-02
   245  2.4400000000000D+00  5.5273539361998D-01 -5.1866444733061D-02
   246  2.4500000000000D+00  5.3101729559472D-01 -4.8671785293785D-02
   247  2.4600000000000D+00  5.0952246730199D-01 -4.5612128217318D-02
   248  2.4700000000000D+00  4.8828392010179D-01 -4.2685143334022D-02
   249  2.4800000000000D+00  4.6733279089453D-01 -3.9888361992849D-02
   250  2.4900000000000D+00  4.4669842774065D-01 -3.7219188023116D-02
   251  2.5000000000000D+00  4.2640842498340D-01 -3.4674908642675D-02
   252  2.5100000000000D+00  4.0648857615855D-01 -3.2252705975542D-02
   253  2.5200000000000D+00  3.8696288382967D-01 -2.9949667747096D-02
   254  2.5300000000000D+00  3.6785356100590D-01 -2.7762797836925D-02
   255  2.5400000000000D+00  3.4918103632495D-01 -2.5689026478524D-02
   256  2.5500000000000D+00  3.3096396206240D-01 -2.3725220199255D-02
   257  2.5600000000000D+00  3.1321922514073D-01 -2.1868191472974D-02
   258  2.5700000000000D+00  2.9596196194898D-01 -2.0114707991968D-02
   259  2.5800000000000D+00  2.7920557592531D-01 -1.8461501660547D-02
   260  2.5900000000000D+00  2.6296175798633D-01 -1.6905277292742D-02
   261  2.6000000000000D+00  2.4724051078906D-01 -1.5442720903828D-02
   262  2.6100000000000D+00  2.3205017564378D-01 -1.4070507710348D-02
   263  2.6200000000000D+00  2.1739746199828D-01 -1.2785309838550D-02
   264  2.6300000000000D+00  2.0328748076479D-01 -1.1583803601821D-02
   265  2.6400000000000D+00  1.8972378007762D-01 -1.0462676484970D-02
   266  2.6500000000000D+00  1.7670838337970D-01 -9.4186338382673D-03
   267  2.6600000000000D+00  1.6424183114226D-01 -8.4484051374612D-03
   268  2.6700000000000D+00  1.5232322482264D-01 -7.5487499465346D-03
   269  2.6800000000000D+00  1.4095027294482D-01 -6.7164635882715D-03
   270  2.6900000000000D+00  1.3011934030451D-01 -5.9483824080676D-03
   271  2.7000000000000D+00  1.1982549934724D-01 -5.2413887232605D-03
   272  2.7100000000000D+00  1.1006258337932D-01 -4.5924154871531D-03
   273  2.7200000000000D+00  1.0082324225276D-01 -3.9984505891700D-03
   274  2.7300000000000D+00  9.2099000165804D-02 -3.4565408213409D-03
   275  2.7400000000000D+00  8.3880314966452D-02 -2.9637955705414D-03
   276  2.7500000000000D+00  7.6156639179655D-02 -2.5173902031152D-03
   277  2.7600000000000D+00  6.8916483055477D-02 -2.1145690976797D-03
   278  2.7700000000000D+00  6.2147478747190D-02 -1.7526484189882D-03
   279  2.7800000000000D+00  5.5836445455052D-02 -1.4290186469420D-03
   280  2.7900000000000D+00  4.9969456402807D-02 -1.1411467398729D-03
   281  2.8000000000000D+00  4.4531906398856D-02 -8.8657807674161D-04
   282  2.8100000000000D+00  3.9508580026213D-02 -6.6293816869898D-04
   283  2.8200000000000D+00  3.4883720848197D-02 -4.6793406663736D-04
   284  2.8300000000000D+00  3.0641100980621D-02 -2.9935554454871D-04
   285  2.8400000000000D+00  2.6764090871501D-02 -1.5507607300639D-04
   286  2.8500000000000D+00  2.3235729253415D-02 -3.3053568040371D-05
   287  2.8600000000000D+00  2.0038793173021D-02  6.8669091558259D-05
   288  2.8700000000000D+00  1.7155867701373D-02  1.5196372481446D-04
   289  2.8800000000000D+00  1.4569415304566D-02  2.1861667390480D-04
   290  2.8900000000000D+00  1.2261844618308D-02  2.7032884269184D-04
   291  2.9000000000000D+00  1.0215578470852D-02  3.0871587135226D-04
   292  2.9100000000000D+00  8.4131211454047D-03  3.3530846122535D-04
   293  2.9200000000000D+00  6.8371243966028D-03  3.5155283926634D-04
   294  2.9300000000000D+00  5.4704521643632D-03  3.5881134673313D-04
   295  2.9400000000000D+00  4.2962439164219D-03  3.5836313660982D-04
   296  2.9500000000000D+00  3.2979767936545D-03  3.5140498389016D-04
   297  2.9600000000000D+00  2.4595251897281D-03  3.3905215918464D-04
   298  2.9700000000000D+00  1.7652188034090D-03  3.2233938726080D-04
   299  2.9800000000000D+00  1.1998990314405D-03  3.0222189128394D-04
   300  2.9900000000000D+00  7.4897255405818D-04  2.7957646139828D-04
   301  3.0000000000000D+00  3.9846245421924D-04  2.5520255956717D-04
   302  3.0100000000000D+00  1.3505688573568D-04  2.2982345526954D-04
   303  3.0200000000000D+00 -5.3843786933488D-05  2.0408744479069D-04
   304  3.0300000000000D+00 -1.8008473265801D-04  1.7856895961198D-04
   305  3.0400000000000D+00 -2.5471621129355D-04  1.5376973432259D-04
   306  3.0500000000000D+00 -2.8795580719509D-04  1.3011998623676D-04
   307  3.0600000000000D+00 -2.8915414229338D-04  1.0797955312405D-04
   308  3.0700000000000D+00 -2.6676475479319D-04  8.7638944162103D-05
   309  3.0800000000000D+00 -2.2815993354559D-04  6.9312443403111D-05
   310  3.0900000000000D+00 -1.8012563521325D-04  5.3165520621210D-05
   311  3.1000000000000D+00 -1.2839364964484D-04  3.9293015342030D-05
   312  3.1100000000000D+00 -7.7687120608611D-05  2.7718760996401D-05
   313  3.1200000000000D+00 -3.2076503820219D-05  1.8399304492150D-05
   314  3.1300000000000D+00  7.1421635894157D-06  1.1213427484480D-05
   315  3.1400000000000D+00  3.8834044971598D-05  5.9798009695181D-06
   316  3.1500000000000D+00  6.3221532280037D-05  2.4841329534944D-06
   317  3.1600000000000D+00  8.0134685966255D-05  4.4197369523429D-07
   318  3.1700000000000D+00  8.7407598627825D-05 -5.3238156425608D-07
   319  3.1800000000000D+00  8.4703293165679D-05 -7.8716408225115D-07
   320  3.1900000000000D+00  7.0351483951037D-05 -6.9613709755055D-07
   321  3.2000000000000D+00  4.8169534601463D-05 -4.7175198114342D-07
   322  3.2100000000000D+00  2.4358446568534D-05 -2.2192055240898D-07
   323  3.2200000000000D+00  3.6043647801484D-06 -2.9467666879795D-08
   324  3.2300000000000D+00 -6.6398193292431D-06  8.5335842629498D-08
   325  3.2400000000000D+00 -8.8046731194852D-06  1.1373063582259D-07
   326  3.2500000000000D+00 -5.8197626352671D-06  7.5191511182286D-08
   327  3.2600000000000D+00 -4.3246107312146D-07  5.5721675436070D-09
   328  3.2700000000000D+00  1.5257777649949D-06 -2.2959118304328D-08
   329  3.2800000000000D+00  2.0028683315985D-06 -3.0537108529832D-08
   330  3.2900000000000D+00  1.3242247207581D-06 -2.0418185805184D-08
   331  3.3000000000000D+00 -2.1328369317230D-09  2.0048827911367D-11
   332  3.3100000000000D+00 -1.7804666588207D-07  1.6736520787732D-09
   333  3.3200000000000D+00 -2.2823903911445D-07  2.1454641701862D-09
   334  3.3300000000000D+00 -1.4932748303019D-07  1.4036895953838D-09
   335  3.3400000000000D+00  0.0000000000000D+00  0.0000000000000D+00
   336  3.3500000000000D+00  0.0000000000000D+00  0.0000000000000D+00
   337  3.3600000000000D+00  0.0000000000000D+00  0.0000000000000D+00
   338  3.3700000000000D+00  0.0000000000000D+00  0.0000000000000D+00
   339  3.3800000000000D+00  0.0000000000000D+00  0.0000000000000D+00
   340  3.3900000000000D+00  0.0000000000000D+00  0.0000000000000D+00
   341  3.4000000000000D+00  0.0000000000000D+00  0.0000000000000D+00
   342  3.4100000000000D+00  0.0000000000000D+00  0.0000000000000D+00
   343  3.4200000000000D+00  0.0000000000000D+00  0.0000000000000D+00
   344  3.4300000000000D+00  0.0000000000000D+00  0.0000000000000D+00
   345  3.4400000000000D+00  0.0000000000000D+00  0.0000000000000D+00
   346  3.4500000000000D+00  0.0000000000000D+00  0.0000000000000D+00
   347  3.4600000000000D+00  0.0000000000000D+00  0.0000000000000D+00
   348  3.4700000000000D+00  0.0000000000000D+00  0.0000000000000D+00
   349  3.4800000000000D+00  0.0000000000000D+00  0.0000000000000D+00
   350  3.4900000000000D+00  0.0000000000000D+00  0.0000000000000D+00
   351  3.5000000000000D+00  0.0000000000000D+00  0.0000000000000D+00
   352  3.5100000000000D+00  0.0000000000000D+00  0.0000000000000D+00
   353  3.5200000000000D+00  0.0000000000000D+00  0.0000000000000D+00
   354  3.5300000000000D+00  0.0000000000000D+00  0.0000000000000D+00
   355  3.5400000000000D+00  0.0000000000000D+00  0.0000000000000D+00
   356  3.5500000000000D+00  0.0000000000000D+00  0.0000000000000D+00
   357  3.5600000000000D+00  0.0000000000000D+00  0.0000000000000D+00
   358  3.5700000000000D+00  0.0000000000000D+00  0.0000000000000D+00
   359  3.5800000000000D+00  0.0000000000000D+00  0.0000000000000D+00
   360  3.5900000000000D+00  0.0000000000000D+00  0.0000000000000D+00
   361  3.6000000000000D+00  0.0000000000000D+00  0.0000000000000D+00
   362  3.6100000000000D+00  0.0000000000000D+00  0.0000000000000D+00
   363  3.6200000000000D+00  0.0000000000000D+00  0.0000000000000D+00
   364  3.6300000000000D+00  0.0000000000000D+00  0.0000000000000D+00
   365  3.6400000000000D+00  0.0000000000000D+00  0.0000000000000D+00
   366  3.6500000000000D+00  0.0000000000000D+00  0.0000000000000D+00
   367  3.6600000000000D+00  0.0000000000000D+00  0.0000000000000D+00
   368  3.6700000000000D+00  0.0000000000000D+00  0.0000000000000D+00
   369  3.6800000000000D+00  0.0000000000000D+00  0.0000000000000D+00
   370  3.6900000000000D+00  0.0000000000000D+00  0.0000000000000D+00
   371  3.7000000000000D+00  0.0000000000000D+00  0.0000000000000D+00
   372  3.7100000000000D+00  0.0000000000000D+00  0.0000000000000D+00
   373  3.7200000000000D+00  0.0000000000000D+00  0.0000000000000D+00
   374  3.7300000000000D+00  0.0000000000000D+00  0.0000000000000D+00
   375  3.7400000000000D+00  0.0000000000000D+00  0.0000000000000D+00
   376  3.7500000000000D+00  0.0000000000000D+00  0.0000000000000D+00
   377  3.7600000000000D+00  0.0000000000000D+00  0.0000000000000D+00
   378  3.7700000000000D+00  0.0000000000000D+00  0.0000000000000D+00
   379  3.7800000000000D+00  0.0000000000000D+00  0.0000000000000D+00
   380  3.7900000000000D+00  0.0000000000000D+00  0.0000000000000D+00
   381  3.8000000000000D+00  0.0000000000000D+00  0.0000000000000D+00
   382  3.8100000000000D+00  0.0000000000000D+00  0.0000000000000D+00
   383  3.8200000000000D+00  0.0000000000000D+00  0.0000000000000D+00
   384  3.8300000000000D+00  0.0000000000000D+00  0.0000000000000D+00
   385  3.8400000000000D+00  0.0000000000000D+00  0.0000000000000D+00
   386  3.8500000000000D+00  0.0000000000000D+00  0.0000000000000D+00
   387  3.8600000000000D+00  0.0000000000000D+00  0.0000000000000D+00
   388  3.8700000000000D+00  0.0000000000000D+00  0.0000000000000D+00
   389  3.8800000000000D+00  0.0000000000000D+00  0.0000000000000D+00
   390  3.8900000000000D+00  0.0000000000000D+00  0.0000000000000D+00
   391  3.9000000000000D+00  0.0000000000000D+00  0.0000000000000D+00
   392  3.9100000000000D+00  0.0000000000000D+00  0.0000000000000D+00
   393  3.9200000000000D+00  0.0000000000000D+00  0.0000000000000D+00
   394  3.9300000000000D+00  0.0000000000000D+00  0.0000000000000D+00
   395  3.9400000000000D+00  0.0000000000000D+00  0.0000000000000D+00
   396  3.9500000000000D+00  0.0000000000000D+00  0.0000000000000D+00
   397  3.9600000000000D+00  0.0000000000000D+00  0.0000000000000D+00
   398  3.9700000000000D+00  0.0000000000000D+00  0.0000000000000D+00
   399  3.9800000000000D+00  0.0000000000000D+00  0.0000000000000D+00
   400  3.9900000000000D+00  0.0000000000000D+00  0.0000000000000D+00
   401  4.0000000000000D+00  0.0000000000000D+00  0.0000000000000D+00
   402  4.0100000000000D+00  0.0000000000000D+00  0.0000000000000D+00
   403  4.0200000000000D+00  0.0000000000000D+00  0.0000000000000D+00
   404  4.0300000000000D+00  0.0000000000000D+00  0.0000000000000D+00
   405  4.0400000000000D+00  0.0000000000000D+00  0.0000000000000D+00
   406  4.0500000000000D+00  0.0000000000000D+00  0.0000000000000D+00
   407  4.0600000000000D+00  0.0000000000000D+00  0.0000000000000D+00
   408  4.0700000000000D+00  0.0000000000000D+00  0.0000000000000D+00
   409  4.0800000000000D+00  0.0000000000000D+00  0.0000000000000D+00
   410  4.0900000000000D+00  0.0000000000000D+00  0.0000000000000D+00
   411  4.1000000000000D+00  0.0000000000000D+00  0.0000000000000D+00
   412  4.1100000000000D+00  0.0000000000000D+00  0.0000000000000D+00
   413  4.1200000000000D+00  0.0000000000000D+00  0.0000000000000D+00
   414  4.1300000000000D+00  0.0000000000000D+00  0.0000000000000D+00
   415  4.1400000000000D+00  0.0000000000000D+00  0.0000000000000D+00
   416  4.1500000000000D+00  0.0000000000000D+00  0.0000000000000D+00
   417  4.1600000000000D+00  0.0000000000000D+00  0.0000000000000D+00
   418  4.1700000000000D+00  0.0000000000000D+00  0.0000000000000D+00
   419  4.1800000000000D+00  0.0000000000000D+00  0.0000000000000D+00
   420  4.1900000000000D+00  0.0000000000000D+00  0.0000000000000D+00
   421  4.2000000000000D+00  0.0000000000000D+00  0.0000000000000D+00
   422  4.2100000000000D+00  0.0000000000000D+00  0.0000000000000D+00