Rh    ONCVPSP-3.3.1  r_core=   2.40816   2.58683   2.58683
     45.0000     17.0000      210904    zatom,zion,pspd
     8      11   2     4   600     0    pspcod,pspxc,lmax,lloc,mmax,r2well
  5.99000000  0.00000000  0.00000000    rchrg fchrg qchrg
     2     3     3     0    nproj
     3     1           extension_switch
     4     4     0    nprojso
   0                         7.7751512684339D-01  4.2793372707017D+00
     1  0.0000000000000D+00 -9.0982230430137D-12  5.3229642915653D-13
     2  1.0000000000000D-02 -9.3635527017558D-04  5.3647641038063D-02
     3  2.0000000000000D-02 -1.8579618901405D-03  1.0721891799033D-01
     4  3.0000000000000D-02 -2.7500292966489D-03  1.6063758020955D-01
     5  4.0000000000000D-02 -3.5976835582539D-03  2.1382760381120D-01
     6  5.0000000000000D-02 -4.3859268336090D-03  2.6671330476862D-01
     7  6.0000000000000D-02 -5.0995981942691D-03  3.1921945166458D-01
     8  7.0000000000000D-02 -5.7233362562384D-03  3.7127137798378D-01
     9  8.0000000000000D-02 -6.2415440554157D-03  4.2279509383087D-01
    10  9.0000000000000D-02 -6.6383565908846D-03  4.7371739695745D-01
    11  1.0000000000000D-01 -6.8976114464482D-03  5.2396598298113D-01
    12  1.1000000000000D-01 -7.0028228853022D-03  5.7346955467854D-01
    13  1.2000000000000D-01 -6.9371597949368D-03  6.2215793023336D-01
    14  1.3000000000000D-01 -6.6834278396516D-03  6.6996215031931D-01
    15  1.4000000000000D-01 -6.2240561562959D-03  7.1681458389660D-01
    16  1.5000000000000D-01 -5.5410889050946D-03  7.6264903259938D-01
    17  1.6000000000000D-01 -4.6161819619466D-03  8.0740083358984D-01
    18  1.7000000000000D-01 -3.4306050111767D-03  8.5100696075345D-01
    19  1.8000000000000D-01 -1.9652492687032D-03  8.9340612410794D-01
    20  1.9000000000000D-01 -2.0064103498903D-04  9.3453886729709D-01
    21  2.0000000000000D-01  1.8830387550862D-03  9.7434766303853D-01
    22  2.1000000000000D-01  4.3059288516992D-03  1.0127770063929D+00
    23  2.2000000000000D-01  7.0884557800306D-03  1.0497735057204D+00
    24  2.3000000000000D-01  1.0251295637773D-02  1.0852859711870D+00
    25  2.4000000000000D-01  1.3815329574135D-02  1.1192655006848D+00
    26  2.5000000000000D-01  1.7801592962156D-02  1.1516655630228D+00
    27  2.6000000000000D-01  2.2231218314717D-02  1.1824420782500D+00
    28  2.7000000000000D-01  2.7125372033531D-02  1.2115534949644D+00
    29  2.8000000000000D-01  3.2505185120164D-02  1.2389608644636D+00
    30  2.9000000000000D-01  3.8391678017551D-02  1.2646279115902D+00
    31  3.0000000000000D-01  4.4805679790388D-02  1.2885211021243D+00
    32  3.1000000000000D-01  5.1767741892381D-02  1.3106097065717D+00
    33  3.2000000000000D-01  5.9298046807512D-02  1.3308658601998D+00
    34  3.3000000000000D-01  6.7416311891338D-02  1.3492646191679D+00
    35  3.4000000000000D-01  7.6141688776293D-02  1.3657840126016D+00
    36  3.5000000000000D-01  8.5492658742088D-02  1.3804050904584D+00
    37  3.6000000000000D-01  9.5486924488295D-02  1.3931119670341D+00
    38  3.7000000000000D-01  1.0614129878078D-01  1.4038918599578D+00
    39  3.8000000000000D-01  1.1747159047671D-01  1.4127351245265D+00
    40  3.9000000000000D-01  1.2949248846438D-01  1.4196352832308D+00
    41  4.0000000000000D-01  1.4221744408309D-01  1.4245890503255D+00
    42  4.1000000000000D-01  1.5565855261596D-01  1.4275963513015D+00
    43  4.2000000000000D-01  1.6982643447305D-01  1.4286603371191D+00
    44  4.3000000000000D-01  1.8473011670464D-01  1.4277873930668D+00
    45  4.4000000000000D-01  2.0037691550407D-01  1.4249871421132D+00
    46  4.5000000000000D-01  2.1677232037594D-01  1.4202724426264D+00
    47  4.6000000000000D-01  2.3391988065944D-01  1.4136593803415D+00
    48  4.7000000000000D-01  2.5182109510641D-01  1.4051672544617D+00
    49  4.8000000000000D-01  2.7047530522083D-01  1.3948185577894D+00
    50  4.9000000000000D-01  2.8987959306991D-01  1.3826389507894D+00
    51  5.0000000000000D-01  3.1002868427637D-01  1.3686572294976D+00
    52  5.1000000000000D-01  3.3091485689775D-01  1.3529052871981D+00
    53  5.2000000000000D-01  3.5252785689031D-01  1.3354180698040D+00
    54  5.3000000000000D-01  3.7485482084379D-01  1.3162335248870D+00
    55  5.4000000000000D-01  3.9788020665698D-01  1.2953925443178D+00
    56  5.5000000000000D-01  4.2158573280464D-01  1.2729389004882D+00
    57  5.6000000000000D-01  4.4595032682246D-01  1.2489191761064D+00
    58  5.7000000000000D-01  4.7095008360889D-01  1.2233826875674D+00
    59  5.8000000000000D-01  4.9655823411114D-01  1.1963814019211D+00
    60  5.9000000000000D-01  5.2274512492676D-01  1.1679698474756D+00
    61  6.0000000000000D-01  5.4947820931332D-01  1.1382050180918D+00
    62  6.1000000000000D-01  5.7672205005487D-01  1.1071462712468D+00
    63  6.2000000000000D-01  6.0443833458787D-01  1.0748552199577D+00
    64  6.3000000000000D-01  6.3258590273874D-01  1.0413956186844D+00
    65  6.4000000000000D-01  6.6112078737196D-01  1.0068332433460D+00
    66  6.5000000000000D-01  6.8999626819136D-01  9.7123576560704D-01
    67  6.6000000000000D-01  7.1916293887782D-01  9.3467262161529D-01
    68  6.7000000000000D-01  7.4856878768502D-01  8.9721487538939D-01
    69  6.8000000000000D-01  7.7815929155092D-01  8.5893507708129D-01
    70  6.9000000000000D-01  8.0787752371606D-01  8.1990711635850D-01
    71  7.0000000000000D-01  8.3766427477259D-01  7.8020607117421D-01
    72  7.1000000000000D-01  8.6745818699851D-01  7.3990805221570D-01
    73  7.2000000000000D-01  8.9719590176137D-01  6.9909004334345D-01
    74  7.3000000000000D-01  9.2681221970472D-01  6.5782973835526D-01
    75  7.4000000000000D-01  9.5624027335979D-01  6.1620537443101D-01
    76  7.5000000000000D-01  9.8541171175327D-01  5.7429556263469D-01
    77  7.6000000000000D-01  1.0142568965117D+00  5.3217911587015D-01
    78  7.7000000000000D-01  1.0427051088932D+00  4.8993487470690D-01
    79  7.8000000000000D-01  1.0706847671085D+00  4.4764153151016D-01
    80  7.9000000000000D-01  1.0981236532262D+00  4.0537745332724D-01
    81  8.0000000000000D-01  1.1249491488931D+00  3.6322050399818D-01
    82  8.1000000000000D-01  1.1510884790371D+00  3.2124786597370D-01
    83  8.2000000000000D-01  1.1764689626608D+00  2.7953586233693D-01
    84  8.3000000000000D-01  1.2010182697785D+00  2.3815977953731D-01
    85  8.4000000000000D-01  1.2246646834956D+00  1.9719369135540D-01
    86  8.5000000000000D-01  1.2473373661804D+00  1.5671028462600D-01
    87  8.6000000000000D-01  1.2689666286355D+00  1.1678068725340D-01
    88  8.7000000000000D-01  1.2894842011345D+00  7.7474299057687D-02
    89  8.8000000000000D-01  1.3088235051554D+00  3.8858625993632D-02
    90  8.9000000000000D-01  1.3269199246129D+00  9.9911828414407D-04
    91  9.0000000000000D-01  1.3437110753674D+00 -3.6040986990882D-02
    92  9.1000000000000D-01  1.3591370717700D+00 -7.2200818313590D-02
    93  9.2000000000000D-01  1.3731407889900D+00 -1.0742201662416D-01
    94  9.3000000000000D-01  1.3856681198661D+00 -1.4164887617122D-01
    95  9.4000000000000D-01  1.3966682250217D+00 -1.7482847880490D-01
    96  9.5000000000000D-01  1.4060937749895D+00 -2.0691082121344D-01
    97  9.6000000000000D-01  1.4139011831069D+00 -2.3784893461995D-01
    98  9.7000000000000D-01  1.4200508279584D+00 -2.6759899647328D-01
    99  9.8000000000000D-01  1.4245072641701D+00 -2.9612043368691D-01
   100  9.9000000000000D-01  1.4272394203907D+00 -3.2337601700180D-01
   101  1.0000000000000D+00  1.4282207833345D+00 -3.4933194607391D-01
   102  1.0100000000000D+00  1.4274295668026D+00 -3.7395792491289D-01
   103  1.0200000000000D+00  1.4248488646530D+00 -3.9722722732743D-01
   104  1.0300000000000D+00  1.4204667867426D+00 -4.1911675206275D-01
   105  1.0400000000000D+00  1.4142765769311D+00 -4.3960706734902D-01
   106  1.0500000000000D+00  1.4062767122967D+00 -4.5868244461072D-01
   107  1.0600000000000D+00  1.3964709827929D+00 -4.7633088112597D-01
   108  1.0700000000000D+00  1.3848685506497D+00 -4.9254411145926D-01
   109  1.0800000000000D+00  1.3714839889024D+00 -5.0731760752977D-01
   110  1.0900000000000D+00  1.3563372985228D+00 -5.2065056721905D-01
   111  1.1000000000000D+00  1.3394539037035D+00 -5.3254589145556D-01
   112  1.1100000000000D+00  1.3208646249528D+00 -5.4301014976294D-01
   113  1.1200000000000D+00  1.3006056297423D+00 -5.5205353429407D-01
   114  1.1300000000000D+00  1.2787183605550D+00 -5.5968980241979D-01
   115  1.1400000000000D+00  1.2552494402634D+00 -5.6593620797614D-01
   116  1.1500000000000D+00  1.2302505548831D+00 -5.7081342132285D-01
   117  1.1600000000000D+00  1.2037783138396D+00 -5.7434543840426D-01
   118  1.1700000000000D+00  1.1758940879951D+00 -5.7655947904919D-01
   119  1.1800000000000D+00  1.1466638257533D+00 -5.7748587477502D-01
   120  1.1900000000000D+00  1.1161578476935D+00 -5.7715794641595D-01
   121  1.2000000000000D+00  1.0844506202642D+00 -5.7561187192632D-01
   122  1.2100000000000D+00  1.0516205091620D+00 -5.7288654474769D-01
   123  1.2200000000000D+00  1.0177495130992D+00 -5.6902342315947D-01
   124  1.2300000000000D+00  9.8292297878235D-01 -5.6406637107839D-01
   125  1.2400000000000D+00  9.4722929799597D-01 -5.5806149079977D-01
   126  1.2500000000000D+00  9.1075958772749D-01 -5.5105694818896D-01
   127  1.2600000000000D+00  8.7360735441070D-01 -5.4310279088494D-01
   128  1.2700000000000D+00  8.3586814340106D-01 -5.3425076008965D-01
   129  1.2800000000000D+00  7.9763917482980D-01 -5.2455409652968D-01
   130  1.2900000000000D+00  7.5901896710559D-01 -5.1406734122008D-01
   131  1.3000000000000D+00  7.2010694935121D-01 -5.0284613166413D-01
   132  1.3100000000000D+00  6.8100306408078D-01 -4.9094699413115D-01
   133  1.3200000000000D+00  6.4180736152453D-01 -4.7842713268540D-01
   134  1.3300000000000D+00  6.0261958699058D-01 -4.6534421563086D-01
   135  1.3400000000000D+00  5.6353876268517D-01 -4.5175616004940D-01
   136  1.3500000000000D+00  5.2466276545508D-01 -4.3772091511461D-01
   137  1.3600000000000D+00  4.8608790188731D-01 -4.2329624485447D-01
   138  1.3700000000000D+00  4.4790848224245D-01 -4.0853951104810D-01
   139  1.3800000000000D+00  4.1021639464963D-01 -3.9350745691095D-01
   140  1.3900000000000D+00  3.7310068101944D-01 -3.7825599224097D-01
   141  1.4000000000000D+00  3.3664711609115D-01 -3.6283998066839D-01
   142  1.4100000000000D+00  3.0093779096266D-01 -3.4731302962166D-01
   143  1.4200000000000D+00  2.6605070253878D-01 -3.3172728366154D-01
   144  1.4300000000000D+00  2.3205935010073D-01 -3.1613322172042D-01
   145  1.4400000000000D+00  1.9903234035243D-01 -3.0057945885966D-01
   146  1.4500000000000D+00  1.6703300211221D-01 -2.8511255306486D-01
   147  1.4600000000000D+00  1.3611901174009D-01 -2.6977681756567D-01
   148  1.4700000000000D+00  1.0634203054113D-01 -2.5461413923351D-01
   149  1.4800000000000D+00  7.7747351798284D-02 -2.3966380251075D-01
   150  1.4900000000000D+00  5.0373575725507D-02 -2.2496232424758D-01
   151  1.5000000000000D+00  2.4252249193037D-02 -2.1054328133222D-01
   152  1.5100000000000D+00 -5.9231639462306D-04 -1.9643719377943D-01
   153  1.5200000000000D+00 -2.4143367914371D-02 -1.8267136745688D-01
   154  1.5300000000000D+00 -4.6392667886443D-02 -1.6926956488370D-01
   155  1.5400000000000D+00 -6.7339139815420D-02 -1.5625233233492D-01
   156  1.5500000000000D+00 -8.6987130971211D-02 -1.4363743505243D-01
   157  1.5600000000000D+00 -1.0534478788587D-01 -1.3144032040470D-01
   158  1.5700000000000D+00 -1.2242215170232D-01 -1.1967466589639D-01
   159  1.5800000000000D+00 -1.3823176562140D-01 -1.0835223099002D-01
   160  1.5900000000000D+00 -1.5278885033439D-01 -9.7482838807632D-02
   161  1.6000000000000D+00 -1.6611104583031D-01 -8.7074471380694D-02
   162  1.6100000000000D+00 -1.7821845627373D-01 -7.7133286143162D-02
   163  1.6200000000000D+00 -1.8913356791423D-01 -6.7663668182781D-02
   164  1.6300000000000D+00 -1.9888118842128D-01 -5.8668277971318D-02
   165  1.6400000000000D+00 -2.0748836827559D-01 -5.0148105288041D-02
   166  1.6500000000000D+00 -2.1498431098249D-01 -4.2102527393564D-02
   167  1.6600000000000D+00 -2.2140027268824D-01 -3.4529371203605D-02
   168  1.6700000000000D+00 -2.2676945199721D-01 -2.7424979145925D-02
   169  1.6800000000000D+00 -2.3112687091893D-01 -2.0784278336315D-02
   170  1.6900000000000D+00 -2.3450924695357D-01 -1.4600853000282D-02
   171  1.7000000000000D+00 -2.3695485729136D-01 -8.8670197582771D-03
   172  1.7100000000000D+00 -2.3850339669275D-01 -3.5739052146712D-03
   173  1.7200000000000D+00 -2.3919582945431D-01  1.2884743497531D-03
   174  1.7300000000000D+00 -2.3907423627689D-01  5.7311315245285D-03
   175  1.7400000000000D+00 -2.3818165743672D-01  9.7660250660308D-03
   176  1.7500000000000D+00 -2.3656193176466D-01  1.3405975855426D-02
   177  1.7600000000000D+00 -2.3425953209402D-01  1.6664581795781D-02
   178  1.7700000000000D+00 -2.3131940025800D-01  1.9556132705145D-02
   179  1.7800000000000D+00 -2.2778678248127D-01  2.2095525539036D-02
   180  1.7900000000000D+00 -2.2370706422088D-01  2.4298179708409D-02
   181  1.8000000000000D+00 -2.1912560537614D-01  2.6179952858430D-02
   182  1.8100000000000D+00 -2.1408757770247D-01  2.7757057740825D-02
   183  1.8200000000000D+00 -2.0863780541696D-01  2.9045980581483D-02
   184  1.8300000000000D+00 -2.0282060892392D-01  3.0063400941206D-02
   185  1.8400000000000D+00 -1.9667965322919D-01  3.0826113681938D-02
   186  1.8500000000000D+00 -1.9025780094007D-01  3.1350952987240D-02
   187  1.8600000000000D+00 -1.8359697163727D-01  3.1654719143495D-02
   188  1.8700000000000D+00 -1.7673800708659D-01  3.1754107870932D-02
   189  1.8800000000000D+00 -1.6972054405032D-01  3.1665642893445D-02
   190  1.8900000000000D+00 -1.6258289434089D-01  3.1405611608365D-02
   191  1.9000000000000D+00 -1.5536193326817D-01  3.0990004305115D-02
   192  1.9100000000000D+00 -1.4809299676631D-01  3.0434457045754D-02
   193  1.9200000000000D+00 -1.4080978727974D-01  2.9754198239787D-02
   194  1.9300000000000D+00 -1.3354428976904D-01  2.8963999442073D-02
   195  1.9400000000000D+00 -1.2632669648210D-01  2.8078129852935D-02
   196  1.9500000000000D+00 -1.1918534294702D-01  2.7110315470491D-02
   197  1.9600000000000D+00 -1.1214665307331D-01  2.6073702083714D-02
   198  1.9700000000000D+00 -1.0523509545169D-01  2.4980822913187D-02
   199  1.9800000000000D+00 -9.8473149715830D-02  2.3843570465556D-02
   200  1.9900000000000D+00 -9.1881283271964D-02  2.2673172721901D-02
   201  2.0000000000000D+00 -8.5477939149033D-02  2.1480173951631D-02
   202  2.0100000000000D+00 -7.9279533034053D-02  2.0274419412795D-02
   203  2.0200000000000D+00 -7.3300461934393D-02  1.9065044877026D-02
   204  2.0300000000000D+00 -6.7553121623896D-02  1.7860469893141D-02
   205  2.0400000000000D+00 -6.2047934568308D-02  1.6668395441176D-02
   206  2.0500000000000D+00 -5.6793387218113D-02  1.5495805554036D-02
   207  2.0600000000000D+00 -5.1796075848387D-02  1.4348972595545D-02
   208  2.0700000000000D+00 -4.7060762079935D-02  1.3233466631534D-02
   209  2.0800000000000D+00 -4.2590435527484D-02  1.2154167919319D-02
   210  2.0900000000000D+00 -3.8386385078492D-02  1.1115283093878D-02
   211  2.1000000000000D+00 -3.4448277011947D-02  1.0120364367847D-02
   212  2.1100000000000D+00 -3.0774239569394D-02  9.1723315997363D-03
   213  2.1200000000000D+00 -2.7360954199214D-02  8.2734973186223D-03
   214  2.1300000000000D+00 -2.4203751491492D-02  7.4255939467101D-03
   215  2.1400000000000D+00 -2.1296712458683D-02  6.6298034768707D-03
   216  2.1500000000000D+00 -1.8632773700403D-02  5.8867890451485D-03
   217  2.1600000000000D+00 -1.6203835867434D-02  5.1967281770492D-03
   218  2.1700000000000D+00 -1.4000875081902D-02  4.5593475832727D-03
   219  2.1800000000000D+00 -1.2014056193378D-02  3.9739590695874D-03
   220  2.1900000000000D+00 -1.0232847324912D-02  3.4394963638410D-03
   221  2.2000000000000D+00 -8.6461349689111D-03  2.9545525737473D-03
   222  2.2100000000000D+00 -7.2423391357933D-03  2.5174180815869D-03
   223  2.2200000000000D+00 -6.0095271654500D-03  2.1261183617504D-03
   224  2.2300000000000D+00 -4.9355264923546D-03  1.7784518133674D-03
   225  2.2400000000000D+00 -4.0080349409486D-03  1.4720270777078D-03
   226  2.2500000000000D+00 -3.2147276925017D-03  1.2042995145909D-03
   227  2.2600000000000D+00 -2.5433617686964D-03  9.7260714175268D-04
   228  2.2700000000000D+00 -1.9818751118080D-03  7.7420494908632D-04
   229  2.2800000000000D+00 -1.5184813530242D-03  6.0629798423290D-04
   230  2.2900000000000D+00 -1.1417601923762D-03  4.6607317463118D-04
   231  2.3000000000000D+00 -8.4074002417095D-04  3.5072862854028D-04
   232  2.3100000000000D+00 -6.0497593513642D-04  2.5750157036169D-04
   233  2.3200000000000D+00 -4.2462060748625D-04  1.8369398601414D-04
   234  2.3300000000000D+00 -2.9052429187830D-04  1.2669665154698D-04
   235  2.3400000000000D+00 -1.9416358570081D-04  8.4006300240921D-05
   236  2.3500000000000D+00 -1.2777973131126D-04  5.3246497239650D-05
   237  2.3600000000000D+00 -8.4147245253881D-05  3.2131350242894D-05
   238  2.3700000000000D+00 -5.7933058460673D-05  1.8684375450899D-05
   239  2.3800000000000D+00 -4.4337580488477D-05  1.1044948740570D-05
   240  2.3900000000000D+00 -3.9939256153537D-05  7.6714916081996D-06
   241  2.4000000000000D+00 -3.7657396776510D-05  6.3423991750263D-06
   242  2.4100000000000D+00 -3.2378657000735D-05  5.3407992378131D-06
   243  2.4200000000000D+00 -2.0669133263569D-05  3.4244814235233D-06
   244  2.4300000000000D+00 -7.7013138435478D-06  1.2977171039666D-06
   245  2.4400000000000D+00  1.5642723012998D-06 -2.4995897038073D-07
   246  2.4500000000000D+00  3.5854784713012D-06 -5.7370725092087D-07
   247  2.4600000000000D+00  1.8699455064895D-06 -2.9997450748448D-07
   248  2.4700000000000D+00 -3.6219731338080D-07  5.5083356322373D-08
   249  2.4800000000000D+00 -7.8577695497220D-07  1.1894662781813D-07
   250  2.4900000000000D+00 -4.1851729055286D-07  6.3107606280459D-08
   251  2.5000000000000D+00  4.5840445676740D-08 -7.5780641933448D-09
   252  2.5100000000000D+00  9.6654740462094D-08 -1.5978374926326D-08
   253  2.5200000000000D+00  5.2667275820110D-08 -8.7066343086604D-09
   254  2.5300000000000D+00  0.0000000000000D+00  0.0000000000000D+00
   255  2.5400000000000D+00  0.0000000000000D+00  0.0000000000000D+00
   256  2.5500000000000D+00  0.0000000000000D+00  0.0000000000000D+00
   257  2.5600000000000D+00  0.0000000000000D+00  0.0000000000000D+00
   258  2.5700000000000D+00  0.0000000000000D+00  0.0000000000000D+00
   259  2.5800000000000D+00  0.0000000000000D+00  0.0000000000000D+00
   260  2.5900000000000D+00  0.0000000000000D+00  0.0000000000000D+00
   261  2.6000000000000D+00  0.0000000000000D+00  0.0000000000000D+00
   262  2.6100000000000D+00  0.0000000000000D+00  0.0000000000000D+00
   263  2.6200000000000D+00  0.0000000000000D+00  0.0000000000000D+00
   264  2.6300000000000D+00  0.0000000000000D+00  0.0000000000000D+00
   265  2.6400000000000D+00  0.0000000000000D+00  0.0000000000000D+00
   266  2.6500000000000D+00  0.0000000000000D+00  0.0000000000000D+00
   267  2.6600000000000D+00  0.0000000000000D+00  0.0000000000000D+00
   268  2.6700000000000D+00  0.0000000000000D+00  0.0000000000000D+00
   269  2.6800000000000D+00  0.0000000000000D+00  0.0000000000000D+00
   270  2.6900000000000D+00  0.0000000000000D+00  0.0000000000000D+00
   271  2.7000000000000D+00  0.0000000000000D+00  0.0000000000000D+00
   272  2.7100000000000D+00  0.0000000000000D+00  0.0000000000000D+00
   273  2.7200000000000D+00  0.0000000000000D+00  0.0000000000000D+00
   274  2.7300000000000D+00  0.0000000000000D+00  0.0000000000000D+00
   275  2.7400000000000D+00  0.0000000000000D+00  0.0000000000000D+00
   276  2.7500000000000D+00  0.0000000000000D+00  0.0000000000000D+00
   277  2.7600000000000D+00  0.0000000000000D+00  0.0000000000000D+00
   278  2.7700000000000D+00  0.0000000000000D+00  0.0000000000000D+00
   279  2.7800000000000D+00  0.0000000000000D+00  0.0000000000000D+00
   280  2.7900000000000D+00  0.0000000000000D+00  0.0000000000000D+00
   281  2.8000000000000D+00  0.0000000000000D+00  0.0000000000000D+00
   282  2.8100000000000D+00  0.0000000000000D+00  0.0000000000000D+00
   283  2.8200000000000D+00  0.0000000000000D+00  0.0000000000000D+00
   284  2.8300000000000D+00  0.0000000000000D+00  0.0000000000000D+00
   285  2.8400000000000D+00  0.0000000000000D+00  0.0000000000000D+00
   286  2.8500000000000D+00  0.0000000000000D+00  0.0000000000000D+00
   287  2.8600000000000D+00  0.0000000000000D+00  0.0000000000000D+00
   288  2.8700000000000D+00  0.0000000000000D+00  0.0000000000000D+00
   289  2.8800000000000D+00  0.0000000000000D+00  0.0000000000000D+00
   290  2.8900000000000D+00  0.0000000000000D+00  0.0000000000000D+00
   291  2.9000000000000D+00  0.0000000000000D+00  0.0000000000000D+00
   292  2.9100000000000D+00  0.0000000000000D+00  0.0000000000000D+00
   293  2.9200000000000D+00  0.0000000000000D+00  0.0000000000000D+00
   294  2.9300000000000D+00  0.0000000000000D+00  0.0000000000000D+00
   295  2.9400000000000D+00  0.0000000000000D+00  0.0000000000000D+00
   296  2.9500000000000D+00  0.0000000000000D+00  0.0000000000000D+00
   297  2.9600000000000D+00  0.0000000000000D+00  0.0000000000000D+00
   298  2.9700000000000D+00  0.0000000000000D+00  0.0000000000000D+00
   299  2.9800000000000D+00  0.0000000000000D+00  0.0000000000000D+00
   300  2.9900000000000D+00  0.0000000000000D+00  0.0000000000000D+00
   301  3.0000000000000D+00  0.0000000000000D+00  0.0000000000000D+00
   302  3.0100000000000D+00  0.0000000000000D+00  0.0000000000000D+00
   303  3.0200000000000D+00  0.0000000000000D+00  0.0000000000000D+00
   304  3.0300000000000D+00  0.0000000000000D+00  0.0000000000000D+00
   305  3.0400000000000D+00  0.0000000000000D+00  0.0000000000000D+00
   306  3.0500000000000D+00  0.0000000000000D+00  0.0000000000000D+00
   307  3.0600000000000D+00  0.0000000000000D+00  0.0000000000000D+00
   308  3.0700000000000D+00  0.0000000000000D+00  0.0000000000000D+00
   309  3.0800000000000D+00  0.0000000000000D+00  0.0000000000000D+00
   310  3.0900000000000D+00  0.0000000000000D+00  0.0000000000000D+00
   311  3.1000000000000D+00  0.0000000000000D+00  0.0000000000000D+00
   312  3.1100000000000D+00  0.0000000000000D+00  0.0000000000000D+00
   313  3.1200000000000D+00  0.0000000000000D+00  0.0000000000000D+00
   314  3.1300000000000D+00  0.0000000000000D+00  0.0000000000000D+00
   315  3.1400000000000D+00  0.0000000000000D+00  0.0000000000000D+00
   316  3.1500000000000D+00  0.0000000000000D+00  0.0000000000000D+00
   317  3.1600000000000D+00  0.0000000000000D+00  0.0000000000000D+00
   318  3.1700000000000D+00  0.0000000000000D+00  0.0000000000000D+00
   319  3.1800000000000D+00  0.0000000000000D+00  0.0000000000000D+00
   320  3.1900000000000D+00  0.0000000000000D+00  0.0000000000000D+00
   321  3.2000000000000D+00  0.0000000000000D+00  0.0000000000000D+00
   322  3.2100000000000D+00  0.0000000000000D+00  0.0000000000000D+00
   323  3.2200000000000D+00  0.0000000000000D+00  0.0000000000000D+00
   324  3.2300000000000D+00  0.0000000000000D+00  0.0000000000000D+00
   325  3.2400000000000D+00  0.0000000000000D+00  0.0000000000000D+00
   326  3.2500000000000D+00  0.0000000000000D+00  0.0000000000000D+00
   327  3.2600000000000D+00  0.0000000000000D+00  0.0000000000000D+00
   328  3.2700000000000D+00  0.0000000000000D+00  0.0000000000000D+00
   329  3.2800000000000D+00  0.0000000000000D+00  0.0000000000000D+00
   330  3.2900000000000D+00  0.0000000000000D+00  0.0000000000000D+00
   331  3.3000000000000D+00  0.0000000000000D+00  0.0000000000000D+00
   332  3.3100000000000D+00  0.0000000000000D+00  0.0000000000000D+00
   333  3.3200000000000D+00  0.0000000000000D+00  0.0000000000000D+00
   334  3.3300000000000D+00  0.0000000000000D+00  0.0000000000000D+00
   335  3.3400000000000D+00  0.0000000000000D+00  0.0000000000000D+00
   336  3.3500000000000D+00  0.0000000000000D+00  0.0000000000000D+00
   337  3.3600000000000D+00  0.0000000000000D+00  0.0000000000000D+00
   338  3.3700000000000D+00  0.0000000000000D+00  0.0000000000000D+00
   339  3.3800000000000D+00  0.0000000000000D+00  0.0000000000000D+00
   340  3.3900000000000D+00  0.0000000000000D+00  0.0000000000000D+00
   341  3.4000000000000D+00  0.0000000000000D+00  0.0000000000000D+00
   342  3.4100000000000D+00  0.0000000000000D+00  0.0000000000000D+00
   343  3.4200000000000D+00  0.0000000000000D+00  0.0000000000000D+00
   344  3.4300000000000D+00  0.0000000000000D+00  0.0000000000000D+00
   345  3.4400000000000D+00  0.0000000000000D+00  0.0000000000000D+00
   346  3.4500000000000D+00  0.0000000000000D+00  0.0000000000000D+00
   347  3.4600000000000D+00  0.0000000000000D+00  0.0000000000000D+00
   348  3.4700000000000D+00  0.0000000000000D+00  0.0000000000000D+00
   349  3.4800000000000D+00  0.0000000000000D+00  0.0000000000000D+00
   350  3.4900000000000D+00  0.0000000000000D+00  0.0000000000000D+00
   351  3.5000000000000D+00  0.0000000000000D+00  0.0000000000000D+00
   352  3.5100000000000D+00  0.0000000000000D+00  0.0000000000000D+00
   353  3.5200000000000D+00  0.0000000000000D+00  0.0000000000000D+00
   354  3.5300000000000D+00  0.0000000000000D+00  0.0000000000000D+00
   355  3.5400000000000D+00  0.0000000000000D+00  0.0000000000000D+00
   356  3.5500000000000D+00  0.0000000000000D+00  0.0000000000000D+00
   357  3.5600000000000D+00  0.0000000000000D+00  0.0000000000000D+00
   358  3.5700000000000D+00  0.0000000000000D+00  0.0000000000000D+00
   359  3.5800000000000D+00  0.0000000000000D+00  0.0000000000000D+00
   360  3.5900000000000D+00  0.0000000000000D+00  0.0000000000000D+00
   361  3.6000000000000D+00  0.0000000000000D+00  0.0000000000000D+00
   362  3.6100000000000D+00  0.0000000000000D+00  0.0000000000000D+00
   363  3.6200000000000D+00  0.0000000000000D+00  0.0000000000000D+00
   364  3.6300000000000D+00  0.0000000000000D+00  0.0000000000000D+00
   365  3.6400000000000D+00  0.0000000000000D+00  0.0000000000000D+00
   366  3.6500000000000D+00  0.0000000000000D+00  0.0000000000000D+00
   367  3.6600000000000D+00  0.0000000000000D+00  0.0000000000000D+00
   368  3.6700000000000D+00  0.0000000000000D+00  0.0000000000000D+00
   369  3.6800000000000D+00  0.0000000000000D+00  0.0000000000000D+00
   370  3.6900000000000D+00  0.0000000000000D+00  0.0000000000000D+00
   371  3.7000000000000D+00  0.0000000000000D+00  0.0000000000000D+00
   372  3.7100000000000D+00  0.0000000000000D+00  0.0000000000000D+00
   373  3.7200000000000D+00  0.0000000000000D+00  0.0000000000000D+00
   374  3.7300000000000D+00  0.0000000000000D+00  0.0000000000000D+00
   375  3.7400000000000D+00  0.0000000000000D+00  0.0000000000000D+00
   376  3.7500000000000D+00  0.0000000000000D+00  0.0000000000000D+00
   377  3.7600000000000D+00  0.0000000000000D+00  0.0000000000000D+00
   378  3.7700000000000D+00  0.0000000000000D+00  0.0000000000000D+00
   379  3.7800000000000D+00  0.0000000000000D+00  0.0000000000000D+00
   380  3.7900000000000D+00  0.0000000000000D+00  0.0000000000000D+00
   381  3.8000000000000D+00  0.0000000000000D+00  0.0000000000000D+00
   382  3.8100000000000D+00  0.0000000000000D+00  0.0000000000000D+00
   383  3.8200000000000D+00  0.0000000000000D+00  0.0000000000000D+00
   384  3.8300000000000D+00  0.0000000000000D+00  0.0000000000000D+00
   385  3.8400000000000D+00  0.0000000000000D+00  0.0000000000000D+00
   386  3.8500000000000D+00  0.0000000000000D+00  0.0000000000000D+00
   387  3.8600000000000D+00  0.0000000000000D+00  0.0000000000000D+00
   388  3.8700000000000D+00  0.0000000000000D+00  0.0000000000000D+00
   389  3.8800000000000D+00  0.0000000000000D+00  0.0000000000000D+00
   390  3.8900000000000D+00  0.0000000000000D+00  0.0000000000000D+00
   391  3.9000000000000D+00  0.0000000000000D+00  0.0000000000000D+00
   392  3.9100000000000D+00  0.0000000000000D+00  0.0000000000000D+00
   393  3.9200000000000D+00  0.0000000000000D+00  0.0000000000000D+00
   394  3.9300000000000D+00  0.0000000000000D+00  0.0000000000000D+00
   395  3.9400000000000D+00  0.0000000000000D+00  0.0000000000000D+00
   396  3.9500000000000D+00  0.0000000000000D+00  0.0000000000000D+00
   397  3.9600000000000D+00  0.0000000000000D+00  0.0000000000000D+00
   398  3.9700000000000D+00  0.0000000000000D+00  0.0000000000000D+00
   399  3.9800000000000D+00  0.0000000000000D+00  0.0000000000000D+00
   400  3.9900000000000D+00  0.0000000000000D+00  0.0000000000000D+00
   401  4.0000000000000D+00  0.0000000000000D+00  0.0000000000000D+00
   402  4.0100000000000D+00  0.0000000000000D+00  0.0000000000000D+00
   403  4.0200000000000D+00  0.0000000000000D+00  0.0000000000000D+00
   404  4.0300000000000D+00  0.0000000000000D+00  0.0000000000000D+00
   405  4.0400000000000D+00  0.0000000000000D+00  0.0000000000000D+00
   406  4.0500000000000D+00  0.0000000000000D+00  0.0000000000000D+00
   407  4.0600000000000D+00  0.0000000000000D+00  0.0000000000000D+00
   408  4.0700000000000D+00  0.0000000000000D+00  0.0000000000000D+00
   409  4.0800000000000D+00  0.0000000000000D+00  0.0000000000000D+00
   410  4.0900000000000D+00  0.0000000000000D+00  0.0000000000000D+00
   411  4.1000000000000D+00  0.0000000000000D+00  0.0000000000000D+00
   412  4.1100000000000D+00  0.0000000000000D+00  0.0000000000000D+00
   413  4.1200000000000D+00  0.0000000000000D+00  0.0000000000000D+00
   414  4.1300000000000D+00  0.0000000000000D+00  0.0000000000000D+00
   415  4.1400000000000D+00  0.0000000000000D+00  0.0000000000000D+00
   416  4.1500000000000D+00  0.0000000000000D+00  0.0000000000000D+00
   417  4.1600000000000D+00  0.0000000000000D+00  0.0000000000000D+00
   418  4.1700000000000D+00  0.0000000000000D+00  0.0000000000000D+00
   419  4.1800000000000D+00  0.0000000000000D+00  0.0000000000000D+00
   420  4.1900000000000D+00  0.0000000000000D+00  0.0000000000000D+00
   421  4.2000000000000D+00  0.0000000000000D+00  0.0000000000000D+00
   422  4.2100000000000D+00  0.0000000000000D+00  0.0000000000000D+00