S     ONCVPSP-3.3.1  r_core=   2.12945   1.52480
     16.0000      6.0000      210904    zatom,zion,pspd
     8      11   1     4   600     0    pspcod,pspxc,lmax,lloc,mmax,r2well
  5.99000000  0.00000000  0.00000000    rchrg fchrg qchrg
     2     3     0     0    nproj
     3     1           extension_switch
     4     0     0    nprojso
   0                         6.8519105475840D-01  1.0767933496735D+01
     1  0.0000000000000D+00 -2.0281828994051D-10  9.3112018095809D-11
     2  1.0000000000000D-02 -2.9647472506225D-02  3.7618664847110D-02
     3  2.0000000000000D-02 -5.9263111377608D-02  7.5251280375515D-02
     4  3.0000000000000D-02 -8.8814604662204D-02  1.1291137101556D-01
     5  4.0000000000000D-02 -1.1826868988741D-01  1.5061161216234D-01
     6  5.0000000000000D-02 -1.4759069403198D-01  1.8836341430116D-01
     7  6.0000000000000D-02 -1.7674409163284D-01  2.2617651743850D-01
     8  7.0000000000000D-02 -2.0569008683279D-01  2.6405859916430D-01
     9  8.0000000000000D-02 -2.3438722497210D-01  3.0201489957783D-01
    10  9.0000000000000D-02 -2.6279103907626D-01  3.4004786619444D-01
    11  1.0000000000000D-01 -2.9085373629422D-01  3.7815682181350D-01
    12  1.1000000000000D-01 -3.1852392899918D-01  4.1633765817035D-01
    13  1.2000000000000D-01 -3.4574641487952D-01  4.5458255801805D-01
    14  1.3000000000000D-01 -3.7246200992242D-01  4.9287974808854D-01
    15  1.4000000000000D-01 -3.9860743773132D-01  5.3121328517005D-01
    16  1.5000000000000D-01 -4.2411527812270D-01  5.6956287730776D-01
    17  1.6000000000000D-01 -4.4891397742126D-01  6.0790374189109D-01
    18  1.7000000000000D-01 -4.7292792231907D-01  6.4620650213329D-01
    19  1.8000000000000D-01 -4.9607757858781D-01  6.8443712318067D-01
    20  1.9000000000000D-01 -5.1827969533651D-01  7.2255688880955D-01
    21  2.0000000000000D-01 -5.3944757489692D-01  7.6052241938243D-01
    22  2.1000000000000D-01 -5.5949140779528D-01  7.9828573144133D-01
    23  2.2000000000000D-01 -5.7831867164156D-01  8.3579433901856D-01
    24  2.3000000000000D-01 -5.9583459213632D-01  8.7299139644441D-01
    25  2.4000000000000D-01 -6.1194266376758D-01  9.0981588213045D-01
    26  2.5000000000000D-01 -6.2654522714997D-01  9.4620282250656D-01
    27  2.6000000000000D-01 -6.3954409935010D-01  9.8208355499343D-01
    28  2.7000000000000D-01 -6.5084125295097D-01  1.0173860286000D+00
    29  2.8000000000000D-01 -6.6033953903872D-01  1.0520351404510D+00
    30  2.9000000000000D-01 -6.6794344875153D-01  1.0859531062729D+00
    31  3.0000000000000D-01 -6.7355990751840D-01  1.1190598626027D+00
    32  3.1000000000000D-01 -6.7709909563832D-01  1.1512734982296D+00
    33  3.2000000000000D-01 -6.7847528841337D-01  1.1825107121430D+00
    34  3.3000000000000D-01 -6.7760770865546D-01  1.2126872950356D+00
    35  3.4000000000000D-01 -6.7442138404189D-01  1.2417186312077D+00
    36  3.5000000000000D-01 -6.6884800150051D-01  1.2695202175303D+00
    37  3.6000000000000D-01 -6.6082675056722D-01  1.2960081959616D+00
    38  3.7000000000000D-01 -6.5030514747888D-01  1.3210998959650D+00
    39  3.8000000000000D-01 -6.3723983164596D-01  1.3447143830576D+00
    40  3.9000000000000D-01 -6.2159732609545D-01  1.3667730096204D+00
    41  4.0000000000000D-01 -6.0335475348687D-01  1.3871999640275D+00
    42  4.1000000000000D-01 -5.8250049938440D-01  1.4059228141084D+00
    43  4.2000000000000D-01 -5.5903481461984D-01  1.4228730409324D+00
    44  4.3000000000000D-01 -5.3297034880174D-01  1.4379865589144D+00
    45  4.4000000000000D-01 -5.0433260732084D-01  1.4512042182708D+00
    46  4.5000000000000D-01 -4.7316032456748D-01  1.4624722859179D+00
    47  4.6000000000000D-01 -4.3950574651396D-01  1.4717429009897D+00
    48  4.7000000000000D-01 -4.0343481632591D-01  1.4789745012688D+00
    49  4.8000000000000D-01 -3.6502725724488D-01  1.4841322169628D+00
    50  4.9000000000000D-01 -3.2437654763471D-01  1.4871882284304D+00
    51  5.0000000000000D-01 -2.8158978379950D-01  1.4881220846487D+00
    52  5.1000000000000D-01 -2.3678742696207D-01  1.4869209794362D+00
    53  5.2000000000000D-01 -1.9010293163348D-01  1.4835799826861D+00
    54  5.3000000000000D-01 -1.4168225350642D-01  1.4781022241281D+00
    55  5.4000000000000D-01 -9.1683235959634D-02  1.4704990274254D+00
    56  5.5000000000000D-01 -4.0274875267890D-02  1.4607899927187D+00
    57  5.6000000000000D-01  1.2363534335446D-02  1.4490030260565D+00
    58  5.7000000000000D-01  6.6043373503562D-02  1.4351743144888D+00
    59  5.8000000000000D-01  1.2056778515688D-01  1.4193482459677D+00
    60  5.9000000000000D-01  1.7573287187092D-01  1.4015772735597D+00
    61  6.0000000000000D-01  2.3132899755258D-01  1.3819217238673D+00
    62  6.1000000000000D-01  2.8714218648912D-01  1.3604495499445D+00
    63  6.2000000000000D-01  3.4295561163238D-01  1.3372360293931D+00
    64  6.3000000000000D-01  3.9855116276420D-01  1.3123634087348D+00
    65  6.4000000000000D-01  4.5371108396755D-01  1.2859204955588D+00
    66  6.5000000000000D-01  5.0821966861359D-01  1.2580022003616D+00
    67  6.6000000000000D-01  5.6186499888187D-01  1.2287090303986D+00
    68  6.7000000000000D-01  6.1444071565130D-01  1.1981465382766D+00
    69  6.8000000000000D-01  6.6574780345379D-01  1.1664247284169D+00
    70  6.9000000000000D-01  7.1559637406972D-01  1.1336574249080D+00
    71  7.0000000000000D-01  7.6380743127741D-01  1.0999616046530D+00
    72  7.1000000000000D-01  8.1021459824241D-01  1.0654567000834D+00
    73  7.2000000000000D-01  8.5466578807041D-01  1.0302638760694D+00
    74  7.3000000000000D-01  8.9702479713947D-01  9.9450528599528D-01
    75  7.4000000000000D-01  9.3717279999077D-01  9.5830331228863D-01
    76  7.5000000000000D-01  9.7500972378974D-01  9.2177979699462D-01
    77  7.6000000000000D-01  1.0104554796806D+00  8.8505526826570D-01
    78  7.7000000000000D-01  1.0434510277520D+00  8.4824816889174D-01
    79  7.8000000000000D-01  1.0739592518112D+00  8.1147409322755D-01
    80  7.9000000000000D-01  1.1019656197354D+00  7.7484503907845D-01
    81  8.0000000000000D-01  1.1274786048326D+00  7.3846868128208D-01
    82  8.1000000000000D-01  1.1505298434071D+00  7.0244767387249D-01
    83  8.2000000000000D-01  1.1711740035822D+00  6.6687898783195D-01
    84  8.3000000000000D-01  1.1894883403979D+00  6.3185329152414D-01
    85  8.4000000000000D-01  1.2055719122587D+00  5.9745438096054D-01
    86  8.5000000000000D-01  1.2195444339759D+00  5.6375866707842D-01
    87  8.6000000000000D-01  1.2315447419144D+00  5.3083472720422D-01
    88  8.7000000000000D-01  1.2417288471228D+00  4.9874292783974D-01
    89  8.8000000000000D-01  1.2502675527967D+00  4.6753512584130D-01
    90  8.9000000000000D-01  1.2573436129915D+00  4.3725445496341D-01
    91  9.0000000000000D-01  1.2631484101670D+00  4.0793520460952D-01
    92  9.1000000000000D-01  1.2678781299055D+00  3.7960279747347D-01
    93  9.2000000000000D-01  1.2717294119881D+00  3.5227387256723D-01
    94  9.3000000000000D-01  1.2748944579555D+00  3.2595647991449D-01
    95  9.4000000000000D-01  1.2775555823290D+00  3.0065039353597D-01
    96  9.5000000000000D-01  1.2798792088084D+00  2.7634754927211D-01
    97  9.6000000000000D-01  1.2820087747616D+00  2.5303256991302D-01
    98  9.7000000000000D-01  1.2840592781093D+00  2.3068362935012D-01
    99  9.8000000000000D-01  1.2861038364422D+00  2.0927274811513D-01
   100  9.9000000000000D-01  1.2881381255582D+00  1.8876446449519D-01
   101  1.0000000000000D+00  1.2900604717248D+00  1.6911733624717D-01
   102  1.0100000000000D+00  1.2916862038080D+00  1.5028847506755D-01
   103  1.0200000000000D+00  1.2927723949893D+00  1.3223780772441D-01
   104  1.0300000000000D+00  1.2930456873385D+00  1.1493115545051D-01
   105  1.0400000000000D+00  1.2922299550538D+00  9.8342025346303D-02
   106  1.0500000000000D+00  1.2900701523002D+00  8.2452101711839D-02
   107  1.0600000000000D+00  1.2863499901318D+00  6.7250646897797D-02
   108  1.0700000000000D+00  1.2809025704121D+00  5.2733154962743D-02
   109  1.0800000000000D+00  1.2736144223014D+00  3.8899619064428D-02
   110  1.0900000000000D+00  1.2644241486964D+00  2.5752726962016D-02
   111  1.1000000000000D+00  1.2533172997304D+00  1.3296213106315D-02
   112  1.1100000000000D+00  1.2403191223138D+00  1.5335080907584D-03
   113  1.1200000000000D+00  1.2254865546298D+00 -9.5332699713605D-03
   114  1.1300000000000D+00  1.2089004287644D+00 -1.9903992043843D-02
   115  1.1400000000000D+00  1.1906584969713D+00 -2.9580906338575D-02
   116  1.1500000000000D+00  1.1708695937465D+00 -3.8568799138162D-02
   117  1.1600000000000D+00  1.1496489824938D+00 -4.6874991842339D-02
   118  1.1700000000000D+00  1.1271148052631D+00 -5.4509226720323D-02
   119  1.1800000000000D+00  1.1033854944144D+00 -6.1483484486959D-02
   120  1.1900000000000D+00  1.0785779615676D+00 -6.7811768108475D-02
   121  1.2000000000000D+00  1.0528063870077D+00 -7.3509873472148D-02
   122  1.2100000000000D+00  1.0261814624535D+00 -7.8595161802696D-02
   123  1.2200000000000D+00  9.9880995848924D-01 -8.3086343025950D-02
   124  1.2300000000000D+00  9.7079451346910D-01 -8.7003274645799D-02
   125  1.2400000000000D+00  9.4223357591873D-01 -9.0366777430077D-02
   126  1.2500000000000D+00  9.1322144345238D-01 -9.3198468557941D-02
   127  1.2600000000000D+00  8.8384835417053D-01 -9.5520611354577D-02
   128  1.2700000000000D+00  8.5420061107561D-01 -9.7355980044394D-02
   129  1.2800000000000D+00  8.2436071855017D-01 -9.8727738241746D-02
   130  1.2900000000000D+00  7.9440751385934D-01 -9.9659329264135D-02
   131  1.3000000000000D+00  7.6441629286146D-01 -1.0017437696089D-01
   132  1.3100000000000D+00  7.3445892382236D-01 -1.0029659572576D-01
   133  1.3200000000000D+00  7.0460394335806D-01 -1.0004970812273D-01
   134  1.3300000000000D+00  6.7491663714113D-01 -9.9457369294208D-02
   135  1.3400000000000D+00  6.4545910460192D-01 -9.8543097160541D-02
   136  1.3500000000000D+00  6.1629030799747D-01 -9.7330207509753D-02
   137  1.3600000000000D+00  5.8746610786797D-01 -9.5841753489047D-02
   138  1.3700000000000D+00  5.5903928618961D-01 -9.4100468850347D-02
   139  1.3800000000000D+00  5.3105955945645D-01 -9.2128714578178D-02
   140  1.3900000000000D+00  5.0357358366026D-01 -8.9948428666923D-02
   141  1.4000000000000D+00  4.7662495333896D-01 -8.7581078686399D-02
   142  1.4100000000000D+00  4.5025419683159D-01 -8.5047617137728D-02
   143  1.4200000000000D+00  4.2449876970384D-01 -8.2368439433359D-02
   144  1.4300000000000D+00  3.9939304850840D-01 -7.9563344483899D-02
   145  1.4400000000000D+00  3.7496832626438D-01 -7.6651497937487D-02
   146  1.4500000000000D+00  3.5125281181463D-01 -7.3651398047408D-02
   147  1.4600000000000D+00  3.2827163398952D-01 -7.0580844280579D-02
   148  1.4700000000000D+00  3.0604685211573D-01 -6.7456908690636D-02
   149  1.4800000000000D+00  2.8459747389827D-01 -6.4295910156012D-02
   150  1.4900000000000D+00  2.6393948116662D-01 -6.1113391520224D-02
   151  1.5000000000000D+00  2.4408586473876D-01 -5.7924099738913D-02
   152  1.5100000000000D+00  2.2504666804420D-01 -5.4741969032136D-02
   153  1.5200000000000D+00  2.0682904056792D-01 -5.1580107141209D-02
   154  1.5300000000000D+00  1.8943730051587D-01 -4.8450784660480D-02
   155  1.5400000000000D+00  1.7287300712491D-01 -4.5365427493618D-02
   156  1.5500000000000D+00  1.5713504215021D-01 -4.2334612408906D-02
   157  1.5600000000000D+00  1.4221970024983D-01 -3.9368065661579D-02
   158  1.5700000000000D+00  1.2812078795744D-01 -3.6474664676769D-02
   159  1.5800000000000D+00  1.1482973045925D-01 -3.3662442677700D-02
   160  1.5900000000000D+00  1.0233568590391D-01 -3.0938596267293D-02
   161  1.6000000000000D+00  9.0625666195256D-02 -2.8309495779601D-02
   162  1.6100000000000D+00  7.9684663908780D-02 -2.5780698408802D-02
   163  1.6200000000000D+00  6.9495784243202D-02 -2.3356963895177D-02
   164  1.6300000000000D+00  6.0040381466823D-02 -2.1042272749279D-02
   165  1.6400000000000D+00  5.1298198880099D-02 -1.8839846791478D-02
   166  1.6500000000000D+00  4.3247511547024D-02 -1.6752171943794D-02
   167  1.6600000000000D+00  3.5865270981172D-02 -1.4781023065433D-02
   168  1.6700000000000D+00  2.9127250912430D-02 -1.2927490731287D-02
   169  1.6800000000000D+00  2.3008193460622D-02 -1.1192009757639D-02
   170  1.6900000000000D+00  1.7481954762641D-02 -9.5743893452509D-03
   171  1.7000000000000D+00  1.2521649550664D-02 -8.0738446600308D-03
   172  1.7100000000000D+00  8.0997936783956D-03 -6.6890297000518D-03
   173  1.7200000000000D+00  4.1884442843589D-03 -5.4180712868729D-03
   174  1.7300000000000D+00  7.5933653340264D-04 -4.2586040115893D-03
   175  1.7400000000000D+00 -2.2159831241381D-03 -3.2078059988445D-03
   176  1.7500000000000D+00 -4.7660283366899D-03 -2.2624352974937D-03
   177  1.7600000000000D+00 -6.9192486099905D-03 -1.4188667984014D-03
   178  1.7700000000000D+00 -8.7039107502268D-03 -6.7312946080485D-04
   179  1.7800000000000D+00 -1.0147985334624D-02 -2.0943796634785D-05
   180  1.7900000000000D+00 -1.1279039707812D-02  5.4224064071603D-04
   181  1.8000000000000D+00 -1.2124136484437D-02  1.0212077601359D-03
   182  1.8100000000000D+00 -1.2709739080860D-02  1.4209377027935D-03
   183  1.8200000000000D+00 -1.3061623169028D-02  1.7465698483463D-03
   184  1.8300000000000D+00 -1.3204795282398D-02  2.0033663131113D-03
   185  1.8400000000000D+00 -1.3163417689755D-02  2.1966759224839D-03
   186  1.8500000000000D+00 -1.2960740225676D-02  2.3318988558850D-03
   187  1.8600000000000D+00 -1.2619038609577D-02  2.4144519933147D-03
   188  1.8700000000000D+00 -1.2159559276093D-02  2.4497350723076D-03
   189  1.8800000000000D+00 -1.1602470756649D-02  2.4430977596434D-03
   190  1.8900000000000D+00 -1.0966820954122D-02  2.3998076333529D-03
   191  1.9000000000000D+00 -1.0270500836927D-02  2.3250192739775D-03
   192  1.9100000000000D+00 -9.5302133432494D-03  2.2237443400625D-03
   193  1.9200000000000D+00 -8.7614482399810D-03  2.1008228983584D-03
   194  1.9300000000000D+00 -7.9784616988544D-03  1.9608958437242D-03
   195  1.9400000000000D+00 -7.1942609113023D-03  1.8083786208391D-03
   196  1.9500000000000D+00 -6.4205930438009D-03  1.6474361784260D-03
   197  1.9600000000000D+00 -5.6679382300354D-03  1.4819592220033D-03
   198  1.9700000000000D+00 -4.9455063105854D-03  1.3155418264177D-03
   199  1.9800000000000D+00 -4.2612367875658D-03  1.1514603337868D-03
   200  1.9900000000000D+00 -3.6218016631161D-03  9.9265369441416D-04
   201  2.0000000000000D+00 -3.0326108524497D-03  8.4170511649732D-04
   202  2.0100000000000D+00 -2.4978195385970D-03  7.0082515850214D-04
   203  2.0200000000000D+00 -2.0203373572519D-03  5.7183619844725D-04
   204  2.0300000000000D+00 -1.6018389194225D-03  4.5615830384269D-04
   205  2.0400000000000D+00 -1.2427750464622D-03  3.5479653532312D-04
   206  2.0500000000000D+00 -9.4238524135479D-04  2.6832963418207D-04
   207  2.0600000000000D+00 -6.9888549553785D-04  1.9693083801776D-04
   208  2.0700000000000D+00 -5.0888695477718D-04  1.4025569919451D-04
   209  2.0800000000000D+00 -3.6746942898662D-04  9.7438212664295D-05
   210  2.0900000000000D+00 -2.6753465836136D-04  6.6924525639089D-05
   211  2.1000000000000D+00 -2.0869840997983D-04  4.8310018962358D-05
   212  2.1100000000000D+00 -1.8930510634158D-04  4.0751922426613D-05
   213  2.1200000000000D+00 -1.8651206064466D-04  3.8725995358740D-05
   214  2.1300000000000D+00 -1.6722317954229D-04  3.4453812642235D-05
   215  2.1400000000000D+00 -1.0294652337145D-04  2.1184289528051D-05
   216  2.1500000000000D+00 -3.0187126523364D-05  6.2219146767819D-06
   217  2.1600000000000D+00  1.2997151622189D-05 -2.6582120177686D-06
   218  2.1700000000000D+00  1.6109758036445D-05 -3.2938172882353D-06
   219  2.1800000000000D+00  1.4734123829521D-06 -3.0124377320692D-07
   220  2.1900000000000D+00 -3.7643603397179D-06  7.6665201985203D-07
   221  2.2000000000000D+00 -2.7563287271802D-06  5.6102343979959D-07
   222  2.2100000000000D+00  1.9072708795202D-07 -3.9305715493856D-08
   223  2.2200000000000D+00  4.8080901695708D-07 -9.9086829408048D-08
   224  2.2300000000000D+00  1.8416564488287D-07 -3.7953510008654D-08
   225  2.2400000000000D+00  0.0000000000000D+00  0.0000000000000D+00
   226  2.2500000000000D+00  0.0000000000000D+00  0.0000000000000D+00
   227  2.2600000000000D+00  0.0000000000000D+00  0.0000000000000D+00
   228  2.2700000000000D+00  0.0000000000000D+00  0.0000000000000D+00
   229  2.2800000000000D+00  0.0000000000000D+00  0.0000000000000D+00
   230  2.2900000000000D+00  0.0000000000000D+00  0.0000000000000D+00
   231  2.3000000000000D+00  0.0000000000000D+00  0.0000000000000D+00
   232  2.3100000000000D+00  0.0000000000000D+00  0.0000000000000D+00
   233  2.3200000000000D+00  0.0000000000000D+00  0.0000000000000D+00
   234  2.3300000000000D+00  0.0000000000000D+00  0.0000000000000D+00
   235  2.3400000000000D+00  0.0000000000000D+00  0.0000000000000D+00
   236  2.3500000000000D+00  0.0000000000000D+00  0.0000000000000D+00
   237  2.3600000000000D+00  0.0000000000000D+00  0.0000000000000D+00
   238  2.3700000000000D+00  0.0000000000000D+00  0.0000000000000D+00
   239  2.3800000000000D+00  0.0000000000000D+00  0.0000000000000D+00
   240  2.3900000000000D+00  0.0000000000000D+00  0.0000000000000D+00
   241  2.4000000000000D+00  0.0000000000000D+00  0.0000000000000D+00
   242  2.4100000000000D+00  0.0000000000000D+00  0.0000000000000D+00
   243  2.4200000000000D+00  0.0000000000000D+00  0.0000000000000D+00
   244  2.4300000000000D+00  0.0000000000000D+00  0.0000000000000D+00
   245  2.4400000000000D+00  0.0000000000000D+00  0.0000000000000D+00
   246  2.4500000000000D+00  0.0000000000000D+00  0.0000000000000D+00
   247  2.4600000000000D+00  0.0000000000000D+00  0.0000000000000D+00
   248  2.4700000000000D+00  0.0000000000000D+00  0.0000000000000D+00
   249  2.4800000000000D+00  0.0000000000000D+00  0.0000000000000D+00
   250  2.4900000000000D+00  0.0000000000000D+00  0.0000000000000D+00
   251  2.5000000000000D+00  0.0000000000000D+00  0.0000000000000D+00
   252  2.5100000000000D+00  0.0000000000000D+00  0.0000000000000D+00
   253  2.5200000000000D+00  0.0000000000000D+00  0.0000000000000D+00
   254  2.5300000000000D+00  0.0000000000000D+00  0.0000000000000D+00
   255  2.5400000000000D+00  0.0000000000000D+00  0.0000000000000D+00
   256  2.5500000000000D+00  0.0000000000000D+00  0.0000000000000D+00
   257  2.5600000000000D+00  0.0000000000000D+00  0.0000000000000D+00
   258  2.5700000000000D+00  0.0000000000000D+00  0.0000000000000D+00
   259  2.5800000000000D+00  0.0000000000000D+00  0.0000000000000D+00
   260  2.5900000000000D+00  0.0000000000000D+00  0.0000000000000D+00
   261  2.6000000000000D+00  0.0000000000000D+00  0.0000000000000D+00
   262  2.6100000000000D+00  0.0000000000000D+00  0.0000000000000D+00
   263  2.6200000000000D+00  0.0000000000000D+00  0.0000000000000D+00
   264  2.6300000000000D+00  0.0000000000000D+00  0.0000000000000D+00
   265  2.6400000000000D+00  0.0000000000000D+00  0.0000000000000D+00
   266  2.6500000000000D+00  0.0000000000000D+00  0.0000000000000D+00
   267  2.6600000000000D+00  0.0000000000000D+00  0.0000000000000D+00
   268  2.6700000000000D+00  0.0000000000000D+00  0.0000000000000D+00
   269  2.6800000000000D+00  0.0000000000000D+00  0.0000000000000D+00
   270  2.6900000000000D+00  0.0000000000000D+00  0.0000000000000D+00
   271  2.7000000000000D+00  0.0000000000000D+00  0.0000000000000D+00
   272  2.7100000000000D+00  0.0000000000000D+00  0.0000000000000D+00
   273  2.7200000000000D+00  0.0000000000000D+00  0.0000000000000D+00
   274  2.7300000000000D+00  0.0000000000000D+00  0.0000000000000D+00
   275  2.7400000000000D+00  0.0000000000000D+00  0.0000000000000D+00
   276  2.7500000000000D+00  0.0000000000000D+00  0.0000000000000D+00
   277  2.7600000000000D+00  0.0000000000000D+00  0.0000000000000D+00
   278  2.7700000000000D+00  0.0000000000000D+00  0.0000000000000D+00
   279  2.7800000000000D+00  0.0000000000000D+00  0.0000000000000D+00
   280  2.7900000000000D+00  0.0000000000000D+00  0.0000000000000D+00
   281  2.8000000000000D+00  0.0000000000000D+00  0.0000000000000D+00
   282  2.8100000000000D+00  0.0000000000000D+00  0.0000000000000D+00
   283  2.8200000000000D+00  0.0000000000000D+00  0.0000000000000D+00
   284  2.8300000000000D+00  0.0000000000000D+00  0.0000000000000D+00
   285  2.8400000000000D+00  0.0000000000000D+00  0.0000000000000D+00
   286  2.8500000000000D+00  0.0000000000000D+00  0.0000000000000D+00
   287  2.8600000000000D+00  0.0000000000000D+00  0.0000000000000D+00
   288  2.8700000000000D+00  0.0000000000000D+00  0.0000000000000D+00
   289  2.8800000000000D+00  0.0000000000000D+00  0.0000000000000D+00
   290  2.8900000000000D+00  0.0000000000000D+00  0.0000000000000D+00
   291  2.9000000000000D+00  0.0000000000000D+00  0.0000000000000D+00
   292  2.9100000000000D+00  0.0000000000000D+00  0.0000000000000D+00
   293  2.9200000000000D+00  0.0000000000000D+00  0.0000000000000D+00
   294  2.9300000000000D+00  0.0000000000000D+00  0.0000000000000D+00
   295  2.9400000000000D+00  0.0000000000000D+00  0.0000000000000D+00
   296  2.9500000000000D+00  0.0000000000000D+00  0.0000000000000D+00
   297  2.9600000000000D+00  0.0000000000000D+00  0.0000000000000D+00
   298  2.9700000000000D+00  0.0000000000000D+00  0.0000000000000D+00
   299  2.9800000000000D+00  0.0000000000000D+00  0.0000000000000D+00
   300  2.9900000000000D+00  0.0000000000000D+00  0.0000000000000D+00
   301  3.0000000000000D+00  0.0000000000000D+00  0.0000000000000D+00
   302  3.0100000000000D+00  0.0000000000000D+00  0.0000000000000D+00
   303  3.0200000000000D+00  0.0000000000000D+00  0.0000000000000D+00
   304  3.0300000000000D+00  0.0000000000000D+00  0.0000000000000D+00
   305  3.0400000000000D+00  0.0000000000000D+00  0.0000000000000D+00
   306  3.0500000000000D+00  0.0000000000000D+00  0.0000000000000D+00
   307  3.0600000000000D+00  0.0000000000000D+00  0.0000000000000D+00
   308  3.0700000000000D+00  0.0000000000000D+00  0.0000000000000D+00
   309  3.0800000000000D+00  0.0000000000000D+00  0.0000000000000D+00
   310  3.0900000000000D+00  0.0000000000000D+00  0.0000000000000D+00
   311  3.1000000000000D+00  0.0000000000000D+00  0.0000000000000D+00
   312  3.1100000000000D+00  0.0000000000000D+00  0.0000000000000D+00
   313  3.1200000000000D+00  0.0000000000000D+00  0.0000000000000D+00
   314  3.1300000000000D+00  0.0000000000000D+00  0.0000000000000D+00
   315  3.1400000000000D+00  0.0000000000000D+00  0.0000000000000D+00
   316  3.1500000000000D+00  0.0000000000000D+00  0.0000000000000D+00
   317  3.1600000000000D+00  0.0000000000000D+00  0.0000000000000D+00
   318  3.1700000000000D+00  0.0000000000000D+00  0.0000000000000D+00
   319  3.1800000000000D+00  0.0000000000000D+00  0.0000000000000D+00
   320  3.1900000000000D+00  0.0000000000000D+00  0.0000000000000D+00
   321  3.2000000000000D+00  0.0000000000000D+00  0.0000000000000D+00
   322  3.2100000000000D+00  0.0000000000000D+00  0.0000000000000D+00
   323  3.2200000000000D+00  0.0000000000000D+00  0.0000000000000D+00
   324  3.2300000000000D+00  0.0000000000000D+00  0.0000000000000D+00
   325  3.2400000000000D+00  0.0000000000000D+00  0.0000000000000D+00
   326  3.2500000000000D+00  0.0000000000000D+00  0.0000000000000D+00
   327  3.2600000000000D+00  0.0000000000000D+00  0.0000000000000D+00
   328  3.2700000000000D+00  0.0000000000000D+00  0.0000000000000D+00
   329  3.2800000000000D+00  0.0000000000000D+00  0.0000000000000D+00
   330  3.2900000000000D+00  0.0000000000000D+00  0.0000000000000D+00
   331  3.3000000000000D+00  0.0000000000000D+00  0.0000000000000D+00
   332  3.3100000000000D+00  0.0000000000000D+00  0.0000000000000D+00
   333  3.3200000000000D+00  0.0000000000000D+00  0.0000000000000D+00
   334  3.3300000000000D+00  0.0000000000000D+00  0.0000000000000D+00
   335  3.3400000000000D+00  0.0000000000000D+00  0.0000000000000D+00
   336  3.3500000000000D+00  0.0000000000000D+00  0.0000000000000D+00
   337  3.3600000000000D+00  0.0000000000000D+00  0.0000000000000D+00
   338  3.3700000000000D+00  0.0000000000000D+00  0.0000000000000D+00
   339  3.3800000000000D+00  0.0000000000000D+00  0.0000000000000D+00
   340  3.3900000000000D+00  0.0000000000000D+00  0.0000000000000D+00
   341  3.4000000000000D+00  0.0000000000000D+00  0.0000000000000D+00
   342  3.4100000000000D+00  0.0000000000000D+00  0.0000000000000D+00
   343  3.4200000000000D+00  0.0000000000000D+00  0.0000000000000D+00
   344  3.4300000000000D+00  0.0000000000000D+00  0.0000000000000D+00
   345  3.4400000000000D+00  0.0000000000000D+00  0.0000000000000D+00
   346  3.4500000000000D+00  0.0000000000000D+00  0.0000000000000D+00
   347  3.4600000000000D+00  0.0000000000000D+00  0.0000000000000D+00
   348  3.4700000000000D+00  0.0000000000000D+00  0.0000000000000D+00
   349  3.4800000000000D+00  0.0000000000000D+00  0.0000000000000D+00
   350  3.4900000000000D+00  0.0000000000000D+00  0.0000000000000D+00
   351  3.5000000000000D+00  0.0000000000000D+00  0.0000000000000D+00
   352  3.5100000000000D+00  0.0000000000000D+00  0.0000000000000D+00
   353  3.5200000000000D+00  0.0000000000000D+00  0.0000000000000D+00
   354  3.5300000000000D+00  0.0000000000000D+00  0.0000000000000D+00
   355  3.5400000000000D+00  0.0000000000000D+00  0.0000000000000D+00
   356  3.5500000000000D+00  0.0000000000000D+00  0.0000000000000D+00
   357  3.5600000000000D+00  0.0000000000000D+00  0.0000000000000D+00
   358  3.5700000000000D+00  0.0000000000000D+00  0.0000000000000D+00
   359  3.5800000000000D+00  0.0000000000000D+00  0.0000000000000D+00
   360  3.5900000000000D+00  0.0000000000000D+00  0.0000000000000D+00
   361  3.6000000000000D+00  0.0000000000000D+00  0.0000000000000D+00
   362  3.6100000000000D+00  0.0000000000000D+00  0.0000000000000D+00
   363  3.6200000000000D+00  0.0000000000000D+00  0.0000000000000D+00
   364  3.6300000000000D+00  0.0000000000000D+00  0.0000000000000D+00
   365  3.6400000000000D+00  0.0000000000000D+00  0.0000000000000D+00
   366  3.6500000000000D+00  0.0000000000000D+00  0.0000000000000D+00
   367  3.6600000000000D+00  0.0000000000000D+00  0.0000000000000D+00
   368  3.6700000000000D+00  0.0000000000000D+00  0.0000000000000D+00
   369  3.6800000000000D+00  0.0000000000000D+00  0.0000000000000D+00
   370  3.6900000000000D+00  0.0000000000000D+00  0.0000000000000D+00
   371  3.7000000000000D+00  0.0000000000000D+00  0.0000000000000D+00
   372  3.7100000000000D+00  0.0000000000000D+00  0.0000000000000D+00
   373  3.7200000000000D+00  0.0000000000000D+00  0.0000000000000D+00
   374  3.7300000000000D+00  0.0000000000000D+00  0.0000000000000D+00
   375  3.7400000000000D+00  0.0000000000000D+00  0.0000000000000D+00
   376  3.7500000000000D+00  0.0000000000000D+00  0.0000000000000D+00
   377  3.7600000000000D+00  0.0000000000000D+00  0.0000000000000D+00
   378  3.7700000000000D+00  0.0000000000000D+00  0.0000000000000D+00
   379  3.7800000000000D+00  0.0000000000000D+00  0.0000000000000D+00
   380  3.7900000000000D+00  0.0000000000000D+00  0.0000000000000D+00
   381  3.8000000000000D+00  0.0000000000000D+00  0.0000000000000D+00
   382  3.8100000000000D+00  0.0000000000000D+00  0.0000000000000D+00
   383  3.8200000000000D+00  0.0000000000000D+00  0.0000000000000D+00
   384  3.8300000000000D+00  0.0000000000000D+00  0.0000000000000D+00
   385  3.8400000000000D+00  0.0000000000000D+00  0.0000000000000D+00
   386  3.8500000000000D+00  0.0000000000000D+00  0.0000000000000D+00
   387  3.8600000000000D+00  0.0000000000000D+00  0.0000000000000D+00
   388  3.8700000000000D+00  0.0000000000000D+00  0.0000000000000D+00
   389  3.8800000000000D+00  0.0000000000000D+00  0.0000000000000D+00
   390  3.8900000000000D+00  0.0000000000000D+00  0.0000000000000D+00
   391  3.9000000000000D+00  0.0000000000000D+00  0.0000000000000D+00
   392  3.9100000000000D+00  0.0000000000000D+00  0.0000000000000D+00
   393  3.9200000000000D+00  0.0000000000000D+00  0.0000000000000D+00
   394  3.9300000000000D+00  0.0000000000000D+00  0.0000000000000D+00
   395  3.9400000000000D+00  0.0000000000000D+00  0.0000000000000D+00
   396  3.9500000000000D+00  0.0000000000000D+00  0.0000000000000D+00
   397  3.9600000000000D+00  0.0000000000000D+00  0.0000000000000D+00
   398  3.9700000000000D+00  0.0000000000000D+00  0.0000000000000D+00
   399  3.9800000000000D+00  0.0000000000000D+00  0.0000000000000D+00
   400  3.9900000000000D+00  0.0000000000000D+00  0.0000000000000D+00
   401  4.0000000000000D+00  0.0000000000000D+00  0.0000000000000D+00
   402  4.0100000000000D+00  0.0000000000000D+00  0.0000000000000D+00
   403  4.0200000000000D+00  0.0000000000000D+00  0.0000000000000D+00
   404  4.0300000000000D+00  0.0000000000000D+00  0.0000000000000D+00
   405  4.0400000000000D+00  0.0000000000000D+00  0.0000000000000D+00
   406  4.0500000000000D+00  0.0000000000000D+00  0.0000000000000D+00
   407  4.0600000000000D+00  0.0000000000000D+00  0.0000000000000D+00
   408  4.0700000000000D+00  0.0000000000000D+00  0.0000000000000D+00
   409  4.0800000000000D+00  0.0000000000000D+00  0.0000000000000D+00
   410  4.0900000000000D+00  0.0000000000000D+00  0.0000000000000D+00
   411  4.1000000000000D+00  0.0000000000000D+00  0.0000000000000D+00
   412  4.1100000000000D+00  0.0000000000000D+00  0.0000000000000D+00
   413  4.1200000000000D+00  0.0000000000000D+00  0.0000000000000D+00
   414  4.1300000000000D+00  0.0000000000000D+00  0.0000000000000D+00
   415  4.1400000000000D+00  0.0000000000000D+00  0.0000000000000D+00
   416  4.1500000000000D+00  0.0000000000000D+00  0.0000000000000D+00
   417  4.1600000000000D+00  0.0000000000000D+00  0.0000000000000D+00
   418  4.1700000000000D+00  0.0000000000000D+00  0.0000000000000D+00
   419  4.1800000000000D+00  0.0000000000000D+00  0.0000000000000D+00
   420  4.1900000000000D+00  0.0000000000000D+00  0.0000000000000D+00
   421  4.2000000000000D+00  0.0000000000000D+00  0.0000000000000D+00
   422  4.2100000000000D+00  0.0000000000000D+00  0.0000000000000D+00