S     ONCVPSP-3.3.1  r_core=   2.12945   1.52480
     16.0000      6.0000      210904    zatom,zion,pspd
     8      11   1     4   600     0    pspcod,pspxc,lmax,lloc,mmax,r2well
  5.99000000  0.00000000  0.00000000    rchrg fchrg qchrg
     2     2     0     0     0    nproj
     1     1           extension_switch
   0                         1.0770356706147D+01  6.8530543160698D-01
     1  0.0000000000000D+00  9.3181184990243D-11 -2.0303717040981D-10
     2  1.0000000000000D-02  3.7623371589247D-02 -2.9645219719337D-02
     3  2.0000000000000D-02  7.5260695150937D-02 -5.9258622959597D-02
     4  3.0000000000000D-02  1.1292549624099D-01 -8.8807914586862D-02
     5  4.0000000000000D-02  1.5063045105084D-01 -1.1825984827546D-01
     6  5.0000000000000D-02  1.8838697037292D-01 -1.4757976615527D-01
     7  6.0000000000000D-02  2.2620479387737D-01 -1.7673115660680D-01
     8  7.0000000000000D-02  2.6409159802735D-01 -2.0567523601413D-01
     9  8.0000000000000D-02  3.0205262086708D-01 -2.3437056008277D-01
    10  9.0000000000000D-02  3.4009030680158D-01 -2.6277267007833D-01
    11  1.0000000000000D-01  3.7820397434987D-01 -2.9083377904397D-01
    12  1.1000000000000D-01  4.1638950969605D-01 -3.1850250271175D-01
    13  1.2000000000000D-01  4.5463908868519D-01 -3.4572363943856D-01
    14  1.3000000000000D-01  4.9294092971512D-01 -3.7243800307147D-01
    15  1.4000000000000D-01  5.3127907976168D-01 -3.9858231218617D-01
    16  1.5000000000000D-01  5.6963323554575D-01 -4.2408913864553D-01
    17  1.6000000000000D-01  6.0797860160577D-01 -4.4888691789873D-01
    18  1.7000000000000D-01  6.4628578678238D-01 -4.7290002288761D-01
    19  1.8000000000000D-01  6.8452074035264D-01 -4.9604890284953D-01
    20  1.9000000000000D-01  7.2264472877235D-01 -5.1825028770963D-01
    21  2.0000000000000D-01  7.6061435369786D-01 -5.3941745814342D-01
    22  2.1000000000000D-01  7.9838161166524D-01 -5.5946058076809D-01
    23  2.2000000000000D-01  8.3589399550677D-01 -5.7828710729187D-01
    24  2.3000000000000D-01  8.7309463728365D-01 -5.9580223581958D-01
    25  2.4000000000000D-01  9.0992249221287D-01 -6.1190943188435D-01
    26  2.5000000000000D-01  9.4631256276565D-01 -6.2651100615505D-01
    27  2.6000000000000D-01  9.8219616181780D-01 -6.3950874515955D-01
    28  2.7000000000000D-01  1.0175012134406D+00 -6.5080459077336D-01
    29  2.8000000000000D-01  1.0521525896354D+00 -6.6030136365223D-01
    30  2.9000000000000D-01  1.0860724810394D+00 -6.6790352524432D-01
    31  3.0000000000000D-01  1.1191807993646D+00 -6.7351797250441D-01
    32  3.1000000000000D-01  1.1513956090783D+00 -6.7705485895557D-01
    33  3.2000000000000D-01  1.1826335855970D+00 -6.7842843530610D-01
    34  3.3000000000000D-01  1.2128104970397D+00 -6.7755790243605D-01
    35  3.4000000000000D-01  1.2418417063848D+00 -6.7436826922203D-01
    36  3.5000000000000D-01  1.2696426906862D+00 -6.6879120737531D-01
    37  3.6000000000000D-01  1.2961295738401D+00 -6.6076589522982D-01
    38  3.7000000000000D-01  1.3212196692492D+00 -6.5023984223677D-01
    39  3.8000000000000D-01  1.3448320286098D+00 -6.3716968580402D-01
    40  3.9000000000000D-01  1.3668879929506D+00 -6.2152195206505D-01
    41  4.0000000000000D-01  1.3873117419802D+00 -6.0327377217372D-01
    42  4.1000000000000D-01  1.4060308377508D+00 -5.8241354580328D-01
    43  4.2000000000000D-01  1.4229767586292D+00 -5.5894154367761D-01
    44  4.3000000000000D-01  1.4380854195693D+00 -5.3287044118643D-01
    45  4.4000000000000D-01  1.4512976747130D+00 -5.0422577542876D-01
    46  4.5000000000000D-01  1.4625597984110D+00 -4.7304631839697D-01
    47  4.6000000000000D-01  1.4718239408370D+00 -4.3938435945085D-01
    48  4.7000000000000D-01  1.4790485544877D+00 -4.0330589074204D-01
    49  4.8000000000000D-01  1.4841987880002D+00 -3.6489068982994D-01
    50  4.9000000000000D-01  1.4872468438875D+00 -3.2423229437913D-01
    51  5.0000000000000D-01  1.4881722969849D+00 -2.8143786454603D-01
    52  5.1000000000000D-01  1.4869623706188D+00 -2.3662792944350D-01
    53  5.2000000000000D-01  1.4836121677521D+00 -1.8993601491522D-01
    54  5.3000000000000D-01  1.4781248546247D+00 -1.4150815075446D-01
    55  5.4000000000000D-01  1.4705117946945D+00 -9.1502256457646D-02
    56  5.5000000000000D-01  1.4607926309922D+00 -4.0087405610779D-02
    57  5.6000000000000D-01  1.4489953153260D+00  1.2557029938495D-02
    58  5.7000000000000D-01  1.4351560831200D+00  6.6242353877983D-02
    59  5.8000000000000D-01  1.4193193730232D+00  1.2077163381719D-01
    60  5.9000000000000D-01  1.4015376908019D+00  1.7594089972635D-01
    61  6.0000000000000D-01  1.3818714174104D+00  2.3154044669973D-01
    62  6.1000000000000D-01  1.3603885615276D+00  2.8735623511691D-01
    63  6.2000000000000D-01  1.3371644572496D+00  3.4317138005268D-01
    64  6.3000000000000D-01  1.3122814080341D+00  3.9876772056884D-01
    65  6.4000000000000D-01  1.2858282784004D+00  4.5392745829792D-01
    66  6.5000000000000D-01  1.2579000353046D+00  5.0843485351455D-01
    67  6.6000000000000D-01  1.2285972415116D+00  5.6207796569506D-01
    68  6.7000000000000D-01  1.1980255036997D+00  6.1465042438630D-01
    69  6.8000000000000D-01  1.1662948784276D+00  6.6595321505687D-01
    70  6.9000000000000D-01  1.1335192394919D+00  7.1579646349172D-01
    71  7.0000000000000D-01  1.0998156105785D+00  7.6400120122189D-01
    72  7.1000000000000D-01  1.0653034674913D+00  8.1040109345504D-01
    73  7.2000000000000D-01  1.0301040145873D+00  8.5484411000905D-01
    74  7.3000000000000D-01  9.9433944039561D-01  8.9719411884275D-01
    75  7.4000000000000D-01  9.5813215771288D-01  9.3733238094048D-01
    76  7.5000000000000D-01  9.2160403377234D-01  9.7515892453957D-01
    77  7.6000000000000D-01  8.8487561636225D-01  1.0105937760005D+00
    78  7.7000000000000D-01  8.4806536202474D-01  1.0435780240143D+00
    79  7.8000000000000D-01  8.1128887269761D-01  1.0740746933206D+00
    80  7.9000000000000D-01  7.7465814736585D-01  1.1020694036818D+00
    81  8.0000000000000D-01  7.3828085546671D-01  1.1275707895219D+00
    82  8.1000000000000D-01  7.0225963894062D-01  1.1506106554016D+00
    83  8.2000000000000D-01  6.6669144993894D-01  1.1712438423604D+00
    84  8.3000000000000D-01  6.3166693128829D-01  1.1895477801178D+00
    85  8.4000000000000D-01  5.9726984686887D-01  1.2056217001902D+00
    86  8.5000000000000D-01  5.6357656909092D-01  1.2195854851434D+00
    87  8.6000000000000D-01  5.3065563064847D-01  1.2315781294712D+00
    88  8.7000000000000D-01  4.9856734769327D-01  1.2417557879576D+00
    89  8.8000000000000D-01  4.6736352150416D-01  1.2502893878547D+00
    90  8.9000000000000D-01  4.3708722562826D-01  1.2573617817728D+00
    91  9.0000000000000D-01  4.0777268534141D-01  1.2631644188492D+00
    92  9.1000000000000D-01  3.7944525611575D-01  1.2678935125187D+00
    93  9.2000000000000D-01  3.5212150759422D-01  1.2717456840598D+00
    94  9.3000000000000D-01  3.2580941935544D-01  1.2749130620244D+00
    95  9.4000000000000D-01  3.0050869509554D-01  1.2775778246943D+00
    96  9.5000000000000D-01  2.7621120178633D-01  1.2799061869516D+00
    97  9.6000000000000D-01  2.5290149631593D-01  1.2820412951344D+00
    98  9.7000000000000D-01  2.3055769102546D-01  1.2840977618870D+00
    99  9.8000000000000D-01  2.0915175244995D-01  1.2861482258293D+00
   100  9.9000000000000D-01  1.8864818042237D-01  1.2881878360751D+00
   101  1.0000000000000D+00  1.6900551831845D-01  1.2901144414002D+00
   102  1.0100000000000D+00  1.5018088640089D-01  1.2917429916921D+00
   103  1.0200000000000D+00  1.3213423853437D-01  1.2928303109932D+00
   104  1.0300000000000D+00  1.1483143549644D-01  1.2931029344903D+00
   105  1.0400000000000D+00  9.8246029578161D-02  1.2922847637009D+00
   106  1.0500000000000D+00  8.2359749670285D-02  1.2901208907114D+00
   107  1.0600000000000D+00  6.7161897291898D-02  1.2863952424881D+00
   108  1.0700000000000D+00  5.2647997252065D-02  1.2809411802222D+00
   109  1.0800000000000D+00  3.8818063815664D-02  1.2736455047239D+00
   110  1.0900000000000D+00  2.5674796426175D-02  1.2644470786613D+00
   111  1.1000000000000D+00  1.3221932993583D-02  1.2533316839683D+00
   112  1.1100000000000D+00  1.4629010396297D-03  1.2403247629868D+00
   113  1.1200000000000D+00 -9.6001891163485D-03  1.2254834106427D+00
   114  1.1300000000000D+00 -1.9967219280134D-02  1.2088885790327D+00
   115  1.1400000000000D+00 -2.9640450155270D-02  1.1906381081931D+00
   116  1.1500000000000D+00 -3.8624681094527D-02  1.1708408937733D+00
   117  1.1600000000000D+00 -4.6927246382509D-02  1.1496122394049D+00
   118  1.1700000000000D+00 -5.4557900486380D-02  1.1270703116831D+00
   119  1.1800000000000D+00 -6.1528635338846D-02  1.1033335562958D+00
   120  1.1900000000000D+00 -6.7853464000459D-02  1.0785188905479D+00
   121  1.2000000000000D+00 -7.3548191289156D-02  1.0527404955400D+00
   122  1.2100000000000D+00 -7.8630186223631D-02  1.0261090609922D+00
   123  1.2200000000000D+00 -8.3118165453027D-02  9.9873135414210D-01
   124  1.2300000000000D+00 -8.7031992216782D-02  9.7071000961053D-01
   125  1.2400000000000D+00 -9.0392492122997D-02  9.4214347245314D-01
   126  1.2500000000000D+00 -9.3221286389749D-02  9.1312603752816D-01
   127  1.2600000000000D+00 -9.5540641666011D-02  8.8374794108749D-01
   128  1.2700000000000D+00 -9.7373334861407D-02  8.5409548521711D-01
   129  1.2800000000000D+00 -9.8742531699511D-02  8.2425117416426D-01
   130  1.2900000000000D+00 -9.9671677103894D-02  7.9429384598532D-01
   131  1.3000000000000D+00 -1.0018439607995D-01  7.6429879814390D-01
   132  1.3100000000000D+00 -1.0030440376005D-01  7.3433790094601D-01
   133  1.3200000000000D+00 -1.0005542307209D-01  7.0447969342406D-01
   134  1.3300000000000D+00 -9.9461109180012D-02  6.7478946389785D-01
   135  1.3400000000000D+00 -9.8544979706157D-02  6.4532931445633D-01
   136  1.3500000000000D+00 -9.7330349841482D-02  6.1615820985632D-01
   137  1.3600000000000D+00 -9.5840271853346D-02  5.8733201281132D-01
   138  1.3700000000000D+00 -9.4097478344156D-02  5.5890350698650D-01
   139  1.3800000000000D+00 -9.2124328889966D-02  5.3092240993648D-01
   140  1.3900000000000D+00 -8.9942759826625D-02  5.0343537795577D-01
   141  1.4000000000000D+00 -8.7574236823210D-02  4.7648600501536D-01
   142  1.4100000000000D+00 -8.5039710245099D-02  4.5011481792340D-01
   143  1.4200000000000D+00 -8.2359573141082D-02  4.2435926967495D-01
   144  1.4300000000000D+00 -7.9553621837522D-02  3.9925373315479D-01
   145  1.4400000000000D+00 -7.6641019185486D-02  3.7482949657675D-01
   146  1.4500000000000D+00 -7.3640260437103D-02  3.5111476282000D-01
   147  1.4600000000000D+00 -7.0569141863630D-02  3.2813465358810D-01
   148  1.4700000000000D+00 -6.7444732139175D-02  3.0591121992849D-01
   149  1.4800000000000D+00 -6.4283346590604D-02  2.8446346014052D-01
   150  1.4900000000000D+00 -6.1100524350789D-02  2.6380734556158D-01
   151  1.5000000000000D+00 -5.7911008519771D-02  2.4395585548316D-01
   152  1.5100000000000D+00 -5.4728729332187D-02  2.2491902083698D-01
   153  1.5200000000000D+00 -5.1566790430257D-02  2.0670397771154D-01
   154  1.5300000000000D+00 -4.8437458212553D-02  1.8931503009879D-01
   155  1.5400000000000D+00 -4.5352154308096D-02  1.7275372229253D-01
   156  1.5500000000000D+00 -4.2321451150016D-02  1.5701892046978D-01
   157  1.5600000000000D+00 -3.9355070616730D-02  1.4210690317391D-01
   158  1.5700000000000D+00 -3.6461885734023D-02  1.2801146038898D-01
   159  1.5800000000000D+00 -3.3649925322528D-02  1.1472400042070D-01
   160  1.5900000000000D+00 -3.0926381598637D-02  1.0223366431140D-01
   161  1.6000000000000D+00 -2.8297620545099D-02  9.0527446738348D-02
   162  1.6100000000000D+00 -2.5769195058856D-02  7.9590323034551D-02
   163  1.6200000000000D+00 -2.3345860655457D-02  6.9405381243432D-02
   164  1.6300000000000D+00 -2.1031593710992D-02  5.9953958664974D-02
   165  1.6400000000000D+00 -1.8829612018729D-02  5.1215781915171D-02
   166  1.6500000000000D+00 -1.6742397597286D-02  4.3169109750901D-02
   167  1.6600000000000D+00 -1.4771721541582D-02  3.5790877845035D-02
   168  1.6700000000000D+00 -1.2918670815566D-02  2.9056844635989D-02
   169  1.6800000000000D+00 -1.1183676791113D-02  2.2941737579130D-02
   170  1.6900000000000D+00 -9.5665454031330D-03  1.7419398846115D-02
   171  1.7000000000000D+00 -8.0664887410107D-03  1.2462929968942D-02
   172  1.7100000000000D+00 -6.6821579249244D-03  8.0448344243547D-03
   173  1.7200000000000D+00 -5.4116771051734D-03  4.1371578488361D-03
   174  1.7300000000000D+00 -4.2526784148395D-03  7.1162482492941D-04
   175  1.7400000000000D+00 -3.2023377390107D-03 -2.2602278219615D-03
   176  1.7500000000000D+00 -2.2574111090382D-03 -4.8069223786642D-03
   177  1.7600000000000D+00 -1.4142716225550D-03 -6.9569159806330D-03
   178  1.7700000000000D+00 -6.6894667060585D-04 -8.7384820401527D-03
   179  1.7800000000000D+00 -1.7155421382844D-05 -1.0179596708974D-02
   180  1.7900000000000D+00  5.4565369322384D-04 -1.1307831875378D-02
   181  1.8000000000000D+00  1.0242654848672D-03 -1.2150253674110D-02
   182  1.8100000000000D+00  1.4236607836051D-03 -1.2733328032291D-02
   183  1.8200000000000D+00  1.7489794501864D-03 -1.3082832143860D-02
   184  1.8300000000000D+00  2.0054838816640D-03 -1.3223773103309D-02
   185  1.8400000000000D+00  2.1985229923811D-03 -1.3180312813235D-02
   186  1.8500000000000D+00  2.3334968685989D-03 -1.2975699854376D-02
   187  1.8600000000000D+00  2.4158221257260D-03 -1.2632207849494D-02
   188  1.8700000000000D+00  2.4508980769038D-03 -1.2171080343737D-02
   189  1.8800000000000D+00  2.4440738172367D-03 -1.1612482241038D-02
   190  1.8900000000000D+00  2.4006162190318D-03 -1.0975457137482D-02
   191  1.9000000000000D+00  2.3256790369636D-03 -1.0277891077798D-02
   192  1.9100000000000D+00  2.2242729979778D-03 -9.5364815248307D-03
   193  1.9200000000000D+00  2.1012371464265D-03 -8.7667122868146D-03
   194  1.9300000000000D+00  1.9612112792193D-03 -7.9828331637339D-03
   195  1.9400000000000D+00  1.8086096829985D-03 -7.1978446338325D-03
   196  1.9500000000000D+00  1.6475961039473D-03 -6.4234868815613D-03
   197  1.9600000000000D+00  1.4820600161451D-03 -5.6702328628150D-03
   198  1.9700000000000D+00  1.3155942496109D-03 -4.9472851176189D-03
   199  1.9800000000000D+00  1.1514739035769D-03 -4.2625757972047D-03
   200  1.9900000000000D+00  9.9263670236138D-04 -3.6227695734198D-03
   201  2.0000000000000D+00  8.4166465969944D-04 -3.0332691213699D-03
   202  2.0100000000000D+00  7.0076718515156D-04 -2.4982225411561D-03
   203  2.0200000000000D+00  5.7176556684188D-04 -2.0205326071268D-03
   204  2.0300000000000D+00  4.5607885416035D-04 -1.6018673518280D-03
   205  2.0400000000000D+00  3.5471117315177D-04 -1.2426713574248D-03
   206  2.0500000000000D+00  2.6824042601291D-04 -9.4217828603662D-04
   207  2.0600000000000D+00  1.9683897249216D-04 -6.9859800144285D-04
   208  2.0700000000000D+00  1.4016194137810D-04 -5.0853773573913D-04
   209  2.0800000000000D+00  9.7343279451567D-05 -3.6707518675449D-04
   210  2.0900000000000D+00  6.6829779629171D-05 -2.6711333539114D-04
   211  2.1000000000000D+00  4.8212367929996D-05 -2.0824354325096D-04
   212  2.1100000000000D+00  4.0644348073068D-05 -1.8878853329930D-04
   213  2.1200000000000D+00  3.8610423666273D-05 -1.8594804335267D-04
   214  2.1300000000000D+00  3.4347717836248D-05 -1.6670153617212D-04
   215  2.1400000000000D+00  2.1118582911904D-05 -1.0262248084012D-04
   216  2.1500000000000D+00  6.2026604724470D-06 -3.0092024287505D-05
   217  2.1600000000000D+00 -2.6498197732357D-06  1.2955698322512D-05
   218  2.1700000000000D+00 -3.2834045833488D-06  1.6058296474939D-05
   219  2.1800000000000D+00 -3.0029104234630D-07  1.4687020208697D-06
   220  2.1900000000000D+00  7.6420391689665D-07 -3.7522762149726D-06
   221  2.2000000000000D+00  5.5922865766968D-07 -2.7474676875257D-06
   222  2.2100000000000D+00 -3.9184793678090D-08  1.9013268445848D-07
   223  2.2200000000000D+00 -9.8781994368665D-08  4.7931056929306D-07
   224  2.2300000000000D+00 -3.7836748176761D-08  1.8359169021348D-07
   225  2.2400000000000D+00  0.0000000000000D+00  0.0000000000000D+00
   226  2.2500000000000D+00  0.0000000000000D+00  0.0000000000000D+00
   227  2.2600000000000D+00  0.0000000000000D+00  0.0000000000000D+00
   228  2.2700000000000D+00  0.0000000000000D+00  0.0000000000000D+00
   229  2.2800000000000D+00  0.0000000000000D+00  0.0000000000000D+00
   230  2.2900000000000D+00  0.0000000000000D+00  0.0000000000000D+00
   231  2.3000000000000D+00  0.0000000000000D+00  0.0000000000000D+00
   232  2.3100000000000D+00  0.0000000000000D+00  0.0000000000000D+00
   233  2.3200000000000D+00  0.0000000000000D+00  0.0000000000000D+00
   234  2.3300000000000D+00  0.0000000000000D+00  0.0000000000000D+00
   235  2.3400000000000D+00  0.0000000000000D+00  0.0000000000000D+00
   236  2.3500000000000D+00  0.0000000000000D+00  0.0000000000000D+00
   237  2.3600000000000D+00  0.0000000000000D+00  0.0000000000000D+00
   238  2.3700000000000D+00  0.0000000000000D+00  0.0000000000000D+00
   239  2.3800000000000D+00  0.0000000000000D+00  0.0000000000000D+00
   240  2.3900000000000D+00  0.0000000000000D+00  0.0000000000000D+00
   241  2.4000000000000D+00  0.0000000000000D+00  0.0000000000000D+00
   242  2.4100000000000D+00  0.0000000000000D+00  0.0000000000000D+00
   243  2.4200000000000D+00  0.0000000000000D+00  0.0000000000000D+00
   244  2.4300000000000D+00  0.0000000000000D+00  0.0000000000000D+00
   245  2.4400000000000D+00  0.0000000000000D+00  0.0000000000000D+00
   246  2.4500000000000D+00  0.0000000000000D+00  0.0000000000000D+00
   247  2.4600000000000D+00  0.0000000000000D+00  0.0000000000000D+00
   248  2.4700000000000D+00  0.0000000000000D+00  0.0000000000000D+00
   249  2.4800000000000D+00  0.0000000000000D+00  0.0000000000000D+00
   250  2.4900000000000D+00  0.0000000000000D+00  0.0000000000000D+00
   251  2.5000000000000D+00  0.0000000000000D+00  0.0000000000000D+00
   252  2.5100000000000D+00  0.0000000000000D+00  0.0000000000000D+00
   253  2.5200000000000D+00  0.0000000000000D+00  0.0000000000000D+00
   254  2.5300000000000D+00  0.0000000000000D+00  0.0000000000000D+00
   255  2.5400000000000D+00  0.0000000000000D+00  0.0000000000000D+00
   256  2.5500000000000D+00  0.0000000000000D+00  0.0000000000000D+00
   257  2.5600000000000D+00  0.0000000000000D+00  0.0000000000000D+00
   258  2.5700000000000D+00  0.0000000000000D+00  0.0000000000000D+00
   259  2.5800000000000D+00  0.0000000000000D+00  0.0000000000000D+00
   260  2.5900000000000D+00  0.0000000000000D+00  0.0000000000000D+00
   261  2.6000000000000D+00  0.0000000000000D+00  0.0000000000000D+00
   262  2.6100000000000D+00  0.0000000000000D+00  0.0000000000000D+00
   263  2.6200000000000D+00  0.0000000000000D+00  0.0000000000000D+00
   264  2.6300000000000D+00  0.0000000000000D+00  0.0000000000000D+00
   265  2.6400000000000D+00  0.0000000000000D+00  0.0000000000000D+00
   266  2.6500000000000D+00  0.0000000000000D+00  0.0000000000000D+00
   267  2.6600000000000D+00  0.0000000000000D+00  0.0000000000000D+00
   268  2.6700000000000D+00  0.0000000000000D+00  0.0000000000000D+00
   269  2.6800000000000D+00  0.0000000000000D+00  0.0000000000000D+00
   270  2.6900000000000D+00  0.0000000000000D+00  0.0000000000000D+00
   271  2.7000000000000D+00  0.0000000000000D+00  0.0000000000000D+00
   272  2.7100000000000D+00  0.0000000000000D+00  0.0000000000000D+00
   273  2.7200000000000D+00  0.0000000000000D+00  0.0000000000000D+00
   274  2.7300000000000D+00  0.0000000000000D+00  0.0000000000000D+00
   275  2.7400000000000D+00  0.0000000000000D+00  0.0000000000000D+00
   276  2.7500000000000D+00  0.0000000000000D+00  0.0000000000000D+00
   277  2.7600000000000D+00  0.0000000000000D+00  0.0000000000000D+00
   278  2.7700000000000D+00  0.0000000000000D+00  0.0000000000000D+00
   279  2.7800000000000D+00  0.0000000000000D+00  0.0000000000000D+00
   280  2.7900000000000D+00  0.0000000000000D+00  0.0000000000000D+00
   281  2.8000000000000D+00  0.0000000000000D+00  0.0000000000000D+00
   282  2.8100000000000D+00  0.0000000000000D+00  0.0000000000000D+00
   283  2.8200000000000D+00  0.0000000000000D+00  0.0000000000000D+00
   284  2.8300000000000D+00  0.0000000000000D+00  0.0000000000000D+00
   285  2.8400000000000D+00  0.0000000000000D+00  0.0000000000000D+00
   286  2.8500000000000D+00  0.0000000000000D+00  0.0000000000000D+00
   287  2.8600000000000D+00  0.0000000000000D+00  0.0000000000000D+00
   288  2.8700000000000D+00  0.0000000000000D+00  0.0000000000000D+00
   289  2.8800000000000D+00  0.0000000000000D+00  0.0000000000000D+00
   290  2.8900000000000D+00  0.0000000000000D+00  0.0000000000000D+00
   291  2.9000000000000D+00  0.0000000000000D+00  0.0000000000000D+00
   292  2.9100000000000D+00  0.0000000000000D+00  0.0000000000000D+00
   293  2.9200000000000D+00  0.0000000000000D+00  0.0000000000000D+00
   294  2.9300000000000D+00  0.0000000000000D+00  0.0000000000000D+00
   295  2.9400000000000D+00  0.0000000000000D+00  0.0000000000000D+00
   296  2.9500000000000D+00  0.0000000000000D+00  0.0000000000000D+00
   297  2.9600000000000D+00  0.0000000000000D+00  0.0000000000000D+00
   298  2.9700000000000D+00  0.0000000000000D+00  0.0000000000000D+00
   299  2.9800000000000D+00  0.0000000000000D+00  0.0000000000000D+00
   300  2.9900000000000D+00  0.0000000000000D+00  0.0000000000000D+00
   301  3.0000000000000D+00  0.0000000000000D+00  0.0000000000000D+00
   302  3.0100000000000D+00  0.0000000000000D+00  0.0000000000000D+00
   303  3.0200000000000D+00  0.0000000000000D+00  0.0000000000000D+00
   304  3.0300000000000D+00  0.0000000000000D+00  0.0000000000000D+00
   305  3.0400000000000D+00  0.0000000000000D+00  0.0000000000000D+00
   306  3.0500000000000D+00  0.0000000000000D+00  0.0000000000000D+00
   307  3.0600000000000D+00  0.0000000000000D+00  0.0000000000000D+00
   308  3.0700000000000D+00  0.0000000000000D+00  0.0000000000000D+00
   309  3.0800000000000D+00  0.0000000000000D+00  0.0000000000000D+00
   310  3.0900000000000D+00  0.0000000000000D+00  0.0000000000000D+00
   311  3.1000000000000D+00  0.0000000000000D+00  0.0000000000000D+00
   312  3.1100000000000D+00  0.0000000000000D+00  0.0000000000000D+00
   313  3.1200000000000D+00  0.0000000000000D+00  0.0000000000000D+00
   314  3.1300000000000D+00  0.0000000000000D+00  0.0000000000000D+00
   315  3.1400000000000D+00  0.0000000000000D+00  0.0000000000000D+00
   316  3.1500000000000D+00  0.0000000000000D+00  0.0000000000000D+00
   317  3.1600000000000D+00  0.0000000000000D+00  0.0000000000000D+00
   318  3.1700000000000D+00  0.0000000000000D+00  0.0000000000000D+00
   319  3.1800000000000D+00  0.0000000000000D+00  0.0000000000000D+00
   320  3.1900000000000D+00  0.0000000000000D+00  0.0000000000000D+00
   321  3.2000000000000D+00  0.0000000000000D+00  0.0000000000000D+00
   322  3.2100000000000D+00  0.0000000000000D+00  0.0000000000000D+00
   323  3.2200000000000D+00  0.0000000000000D+00  0.0000000000000D+00
   324  3.2300000000000D+00  0.0000000000000D+00  0.0000000000000D+00
   325  3.2400000000000D+00  0.0000000000000D+00  0.0000000000000D+00
   326  3.2500000000000D+00  0.0000000000000D+00  0.0000000000000D+00
   327  3.2600000000000D+00  0.0000000000000D+00  0.0000000000000D+00
   328  3.2700000000000D+00  0.0000000000000D+00  0.0000000000000D+00
   329  3.2800000000000D+00  0.0000000000000D+00  0.0000000000000D+00
   330  3.2900000000000D+00  0.0000000000000D+00  0.0000000000000D+00
   331  3.3000000000000D+00  0.0000000000000D+00  0.0000000000000D+00
   332  3.3100000000000D+00  0.0000000000000D+00  0.0000000000000D+00
   333  3.3200000000000D+00  0.0000000000000D+00  0.0000000000000D+00
   334  3.3300000000000D+00  0.0000000000000D+00  0.0000000000000D+00
   335  3.3400000000000D+00  0.0000000000000D+00  0.0000000000000D+00
   336  3.3500000000000D+00  0.0000000000000D+00  0.0000000000000D+00
   337  3.3600000000000D+00  0.0000000000000D+00  0.0000000000000D+00
   338  3.3700000000000D+00  0.0000000000000D+00  0.0000000000000D+00
   339  3.3800000000000D+00  0.0000000000000D+00  0.0000000000000D+00
   340  3.3900000000000D+00  0.0000000000000D+00  0.0000000000000D+00
   341  3.4000000000000D+00  0.0000000000000D+00  0.0000000000000D+00
   342  3.4100000000000D+00  0.0000000000000D+00  0.0000000000000D+00
   343  3.4200000000000D+00  0.0000000000000D+00  0.0000000000000D+00
   344  3.4300000000000D+00  0.0000000000000D+00  0.0000000000000D+00
   345  3.4400000000000D+00  0.0000000000000D+00  0.0000000000000D+00
   346  3.4500000000000D+00  0.0000000000000D+00  0.0000000000000D+00
   347  3.4600000000000D+00  0.0000000000000D+00  0.0000000000000D+00
   348  3.4700000000000D+00  0.0000000000000D+00  0.0000000000000D+00
   349  3.4800000000000D+00  0.0000000000000D+00  0.0000000000000D+00
   350  3.4900000000000D+00  0.0000000000000D+00  0.0000000000000D+00
   351  3.5000000000000D+00  0.0000000000000D+00  0.0000000000000D+00
   352  3.5100000000000D+00  0.0000000000000D+00  0.0000000000000D+00
   353  3.5200000000000D+00  0.0000000000000D+00  0.0000000000000D+00
   354  3.5300000000000D+00  0.0000000000000D+00  0.0000000000000D+00
   355  3.5400000000000D+00  0.0000000000000D+00  0.0000000000000D+00
   356  3.5500000000000D+00  0.0000000000000D+00  0.0000000000000D+00
   357  3.5600000000000D+00  0.0000000000000D+00  0.0000000000000D+00
   358  3.5700000000000D+00  0.0000000000000D+00  0.0000000000000D+00
   359  3.5800000000000D+00  0.0000000000000D+00  0.0000000000000D+00
   360  3.5900000000000D+00  0.0000000000000D+00  0.0000000000000D+00
   361  3.6000000000000D+00  0.0000000000000D+00  0.0000000000000D+00
   362  3.6100000000000D+00  0.0000000000000D+00  0.0000000000000D+00
   363  3.6200000000000D+00  0.0000000000000D+00  0.0000000000000D+00
   364  3.6300000000000D+00  0.0000000000000D+00  0.0000000000000D+00
   365  3.6400000000000D+00  0.0000000000000D+00  0.0000000000000D+00
   366  3.6500000000000D+00  0.0000000000000D+00  0.0000000000000D+00
   367  3.6600000000000D+00  0.0000000000000D+00  0.0000000000000D+00
   368  3.6700000000000D+00  0.0000000000000D+00  0.0000000000000D+00
   369  3.6800000000000D+00  0.0000000000000D+00  0.0000000000000D+00
   370  3.6900000000000D+00  0.0000000000000D+00  0.0000000000000D+00
   371  3.7000000000000D+00  0.0000000000000D+00  0.0000000000000D+00
   372  3.7100000000000D+00  0.0000000000000D+00  0.0000000000000D+00
   373  3.7200000000000D+00  0.0000000000000D+00  0.0000000000000D+00
   374  3.7300000000000D+00  0.0000000000000D+00  0.0000000000000D+00
   375  3.7400000000000D+00  0.0000000000000D+00  0.0000000000000D+00
   376  3.7500000000000D+00  0.0000000000000D+00  0.0000000000000D+00
   377  3.7600000000000D+00  0.0000000000000D+00  0.0000000000000D+00
   378  3.7700000000000D+00  0.0000000000000D+00  0.0000000000000D+00
   379  3.7800000000000D+00  0.0000000000000D+00  0.0000000000000D+00
   380  3.7900000000000D+00  0.0000000000000D+00  0.0000000000000D+00
   381  3.8000000000000D+00  0.0000000000000D+00  0.0000000000000D+00
   382  3.8100000000000D+00  0.0000000000000D+00  0.0000000000000D+00
   383  3.8200000000000D+00  0.0000000000000D+00  0.0000000000000D+00
   384  3.8300000000000D+00  0.0000000000000D+00  0.0000000000000D+00
   385  3.8400000000000D+00  0.0000000000000D+00  0.0000000000000D+00
   386  3.8500000000000D+00  0.0000000000000D+00  0.0000000000000D+00
   387  3.8600000000000D+00  0.0000000000000D+00  0.0000000000000D+00
   388  3.8700000000000D+00  0.0000000000000D+00  0.0000000000000D+00
   389  3.8800000000000D+00  0.0000000000000D+00  0.0000000000000D+00
   390  3.8900000000000D+00  0.0000000000000D+00  0.0000000000000D+00
   391  3.9000000000000D+00  0.0000000000000D+00  0.0000000000000D+00
   392  3.9100000000000D+00  0.0000000000000D+00  0.0000000000000D+00
   393  3.9200000000000D+00  0.0000000000000D+00  0.0000000000000D+00
   394  3.9300000000000D+00  0.0000000000000D+00  0.0000000000000D+00
   395  3.9400000000000D+00  0.0000000000000D+00  0.0000000000000D+00
   396  3.9500000000000D+00  0.0000000000000D+00  0.0000000000000D+00
   397  3.9600000000000D+00  0.0000000000000D+00  0.0000000000000D+00
   398  3.9700000000000D+00  0.0000000000000D+00  0.0000000000000D+00
   399  3.9800000000000D+00  0.0000000000000D+00  0.0000000000000D+00
   400  3.9900000000000D+00  0.0000000000000D+00  0.0000000000000D+00
   401  4.0000000000000D+00  0.0000000000000D+00  0.0000000000000D+00
   402  4.0100000000000D+00  0.0000000000000D+00  0.0000000000000D+00
   403  4.0200000000000D+00  0.0000000000000D+00  0.0000000000000D+00
   404  4.0300000000000D+00  0.0000000000000D+00  0.0000000000000D+00
   405  4.0400000000000D+00  0.0000000000000D+00  0.0000000000000D+00
   406  4.0500000000000D+00  0.0000000000000D+00  0.0000000000000D+00
   407  4.0600000000000D+00  0.0000000000000D+00  0.0000000000000D+00
   408  4.0700000000000D+00  0.0000000000000D+00  0.0000000000000D+00
   409  4.0800000000000D+00  0.0000000000000D+00  0.0000000000000D+00
   410  4.0900000000000D+00  0.0000000000000D+00  0.0000000000000D+00
   411  4.1000000000000D+00  0.0000000000000D+00  0.0000000000000D+00
   412  4.1100000000000D+00  0.0000000000000D+00  0.0000000000000D+00
   413  4.1200000000000D+00  0.0000000000000D+00  0.0000000000000D+00
   414  4.1300000000000D+00  0.0000000000000D+00  0.0000000000000D+00
   415  4.1400000000000D+00  0.0000000000000D+00  0.0000000000000D+00
   416  4.1500000000000D+00  0.0000000000000D+00  0.0000000000000D+00
   417  4.1600000000000D+00  0.0000000000000D+00  0.0000000000000D+00
   418  4.1700000000000D+00  0.0000000000000D+00  0.0000000000000D+00
   419  4.1800000000000D+00  0.0000000000000D+00  0.0000000000000D+00
   420  4.1900000000000D+00  0.0000000000000D+00  0.0000000000000D+00
   421  4.2000000000000D+00  0.0000000000000D+00  0.0000000000000D+00
   422  4.2100000000000D+00  0.0000000000000D+00  0.0000000000000D+00
   423  4.2200000000000D+00  0.0000000000000D+00  0.0000000000000D+00