Sc    ONCVPSP-3.3.1  r_core=   2.91081   2.94574   2.37654
     21.0000     11.0000      210904    zatom,zion,pspd
     8      11   2     4   600     0    pspcod,pspxc,lmax,lloc,mmax,r2well
  5.99000000  0.00000000  0.00000000    rchrg fchrg qchrg
     2     2     2     0     0    nproj
     1     1           extension_switch
   0                         1.3422592856530D+00 -3.5713810880161D-01
     1  0.0000000000000D+00 -8.1307183208423D-13 -2.0836943281921D-12
     2  1.0000000000000D-02  4.7325135528052D-02  1.5566775269148D-02
     3  2.0000000000000D-02  9.4587840975757D-02  3.1116787874050D-02
     4  3.0000000000000D-02  1.4172577952035D-01  4.6633329654024D-02
     5  4.0000000000000D-02  1.8867680071067D-01  6.2099801277684D-02
     6  5.0000000000000D-02  2.3537903329424D-01  7.7499766213519D-02
     7  6.0000000000000D-02  2.8177097761440D-01  9.2817004169046D-02
     8  7.0000000000000D-02  3.2779159743527D-01  1.0803556382384D-01
     9  8.0000000000000D-02  3.7338041105277D-01  1.2313981468376D-01
    10  9.0000000000000D-02  4.1847758155137D-01  1.3811449788638D-01
    11  1.0000000000000D-01  4.6302400606700D-01  1.5294477579061D-01
    12  1.1000000000000D-01  5.0696140391836D-01  1.6761628018705D-01
    13  1.2000000000000D-01  5.5023240347017D-01  1.8211515896997D-01
    14  1.3000000000000D-01  5.9278062759379D-01  1.9642812111583D-01
    15  1.4000000000000D-01  6.3455077759268D-01  2.1054247981885D-01
    16  1.5000000000000D-01  6.7548871546228D-01  2.2444619363915D-01
    17  1.6000000000000D-01  7.1554154435626D-01  2.3812790552512D-01
    18  1.7000000000000D-01  7.5465768713360D-01  2.5157697957794D-01
    19  1.8000000000000D-01  7.9278696286394D-01  2.6478353543285D-01
    20  1.9000000000000D-01  8.2988066117105D-01  2.7773848013913D-01
    21  2.0000000000000D-01  8.6589161429802D-01  2.9043353742783D-01
    22  2.1000000000000D-01  9.0077426678049D-01  3.0286127426465D-01
    23  2.2000000000000D-01  9.3448474261789D-01  3.1501512459310D-01
    24  2.3000000000000D-01  9.6698090983648D-01  3.2688941018204D-01
    25  2.4000000000000D-01  9.9822244234132D-01  3.3847935849999D-01
    26  2.5000000000000D-01  1.0281708789587D+00  3.4978111754820D-01
    27  2.6000000000000D-01  1.0567896795743D+00  3.6079176759327D-01
    28  2.7000000000000D-01  1.0840442782767D+00  3.7150932975014D-01
    29  2.8000000000000D-01  1.1099021334205D+00  3.8193277137559D-01
    30  2.9000000000000D-01  1.1343327745278D+00  3.9206200824249D-01
    31  3.0000000000000D-01  1.1573078459503D+00  4.0189790347517D-01
    32  3.1000000000000D-01  1.1788011472220D+00  4.1144226323609D-01
    33  3.2000000000000D-01  1.1987886700336D+00  4.2069782916463D-01
    34  3.3000000000000D-01  1.2172486317677D+00  4.2966826757883D-01
    35  3.4000000000000D-01  1.2341615055388D+00  4.3835815546142D-01
    36  3.5000000000000D-01  1.2495100466848D+00  4.4677296326151D-01
    37  3.6000000000000D-01  1.2632793156656D+00  4.5491903455406D-01
    38  3.7000000000000D-01  1.2754566973280D+00  4.6280356260893D-01
    39  3.8000000000000D-01  1.2860319165015D+00  4.7043456393182D-01
    40  3.9000000000000D-01  1.2949970498961D+00  4.7782084884930D-01
    41  4.0000000000000D-01  1.3023465342783D+00  4.8497198921987D-01
    42  4.1000000000000D-01  1.3080771709086D+00  4.9189828336275D-01
    43  4.2000000000000D-01  1.3121881262271D+00  4.9861071830550D-01
    44  4.3000000000000D-01  1.3146809287828D+00  5.0512092946079D-01
    45  4.4000000000000D-01  1.3155594624060D+00  5.1144115785146D-01
    46  4.5000000000000D-01  1.3148299556299D+00  5.1758420501170D-01
    47  4.6000000000000D-01  1.3125009673745D+00  5.2356338570038D-01
    48  4.7000000000000D-01  1.3085833689091D+00  5.2939247857050D-01
    49  4.8000000000000D-01  1.3030903221205D+00  5.3508567494619D-01
    50  4.9000000000000D-01  1.2960372541144D+00  5.4065752586581D-01
    51  5.0000000000000D-01  1.2874418281892D+00  5.4612288755630D-01
    52  5.1000000000000D-01  1.2773239112226D+00  5.5149686551007D-01
    53  5.2000000000000D-01  1.2657055375209D+00  5.5679475734148D-01
    54  5.3000000000000D-01  1.2526108691851D+00  5.6203199460502D-01
    55  5.4000000000000D-01  1.2380661530545D+00  5.6722408376192D-01
    56  5.5000000000000D-01  1.2220996742946D+00  5.7238654648595D-01
    57  5.6000000000000D-01  1.2047417067001D+00  5.7753485950269D-01
    58  5.7000000000000D-01  1.1860244597938D+00  5.8268439415944D-01
    59  5.8000000000000D-01  1.1659820228022D+00  5.8785035592501D-01
    60  5.9000000000000D-01  1.1446503055988D+00  5.9304772402052D-01
    61  6.0000000000000D-01  1.1220669767098D+00  5.9829119138320D-01
    62  6.1000000000000D-01  1.0982713984818D+00  6.0359510516543D-01
    63  6.2000000000000D-01  1.0733045595171D+00  6.0897340797123D-01
    64  6.3000000000000D-01  1.0472090044867D+00  6.1443958003110D-01
    65  6.4000000000000D-01  1.0200287614375D+00  6.2000658251487D-01
    66  6.5000000000000D-01  9.9180926671276D-01  6.2568680217941D-01
    67  6.6000000000000D-01  9.6259728761033D-01  6.3149199754569D-01
    68  6.7000000000000D-01  9.3244084290952D-01  6.3743324679547D-01
    69  6.8000000000000D-01  9.0138912139839D-01  6.4352089757409D-01
    70  6.9000000000000D-01  8.6949239853978D-01  6.4976451888050D-01
    71  7.0000000000000D-01  8.3680195141725D-01  6.5617285522039D-01
    72  7.1000000000000D-01  8.0336997210590D-01  6.6275378319198D-01
    73  7.2000000000000D-01  7.6924947961634D-01  6.6951427066695D-01
    74  7.3000000000000D-01  7.3449423056335D-01  6.7646033872212D-01
    75  7.4000000000000D-01  6.9915862871362D-01  6.8359702646889D-01
    76  7.5000000000000D-01  6.6329763356951D-01  6.9092835891922D-01
    77  7.6000000000000D-01  6.2696666814829D-01  6.9845731801787D-01
    78  7.7000000000000D-01  5.9022152611845D-01  7.0618581696073D-01
    79  7.8000000000000D-01  5.5311827845616D-01  7.1411467790928D-01
    80  7.9000000000000D-01  5.1571317978706D-01  7.2224361320044D-01
    81  8.0000000000000D-01  4.7806257457926D-01  7.3057121014032D-01
    82  8.1000000000000D-01  4.4022280335470D-01  7.3909491945870D-01
    83  8.2000000000000D-01  4.0225010908658D-01  7.4781104748984D-01
    84  8.3000000000000D-01  3.6420054395085D-01  7.5671475213260D-01
    85  8.4000000000000D-01  3.2612987659978D-01  7.6580004263115D-01
    86  8.5000000000000D-01  2.8809350012542D-01  7.7505978320443D-01
    87  8.6000000000000D-01  2.5014634087984D-01  7.8448570054040D-01
    88  8.7000000000000D-01  2.1234276831855D-01  7.9406839515747D-01
    89  8.8000000000000D-01  1.7473650603170D-01  8.0379735662338D-01
    90  8.9000000000000D-01  1.3738054412638D-01  8.1366098260784D-01
    91  9.0000000000000D-01  1.0032705312125D-01  8.2364660173291D-01
    92  9.1000000000000D-01  6.3627299512565D-02  8.3374050017151D-01
    93  9.2000000000000D-01  2.7331563167772D-02  8.4392795193174D-01
    94  9.3000000000000D-01 -8.5109432996910D-03  8.5419325275171D-01
    95  9.4000000000000D-01 -4.3852153024394D-02  8.6451975751694D-01
    96  9.5000000000000D-01 -7.8645221105103D-02  8.7488992109972D-01
    97  9.6000000000000D-01 -1.1284459840053D-01  8.8528534250797D-01
    98  9.7000000000000D-01 -1.4640610276623D-01  8.9568681221872D-01
    99  9.8000000000000D-01 -1.7928698759881D-01  9.0607436256006D-01
   100  9.9000000000000D-01 -2.1144600755846D-01  9.1642732099433D-01
   101  1.0000000000000D+00 -2.4284348134579D-01  9.2672436614417D-01
   102  1.0100000000000D+00 -2.7344135141476D-01  9.3694358639324D-01
   103  1.0200000000000D+00 -3.0320324050878D-01  9.4706254088325D-01
   104  1.0300000000000D+00 -3.3209450491331D-01  9.5705832272029D-01
   105  1.0400000000000D+00 -3.6008228432452D-01  9.6690762419422D-01
   106  1.0500000000000D+00 -3.8713554823996D-01  9.7658680380752D-01
   107  1.0600000000000D+00 -4.1322513878377D-01  9.8607195490262D-01
   108  1.0700000000000D+00 -4.3832380988636D-01  9.9533897566977D-01
   109  1.0800000000000D+00 -4.6240626274529D-01  1.0043636403121D+00
   110  1.0900000000000D+00 -4.8544917750151D-01  1.0131216711393D+00
   111  1.1000000000000D+00 -5.0743124107278D-01  1.0215888113572D+00
   112  1.1100000000000D+00 -5.2833317109330D-01  1.0297408983169D+00
   113  1.1200000000000D+00 -5.4813773591733D-01  1.0375539369841D+00
   114  1.1300000000000D+00 -5.6682977065169D-01  1.0450041733885D+00
   115  1.1400000000000D+00 -5.8439618919098D-01  1.0520681678111D+00
   116  1.1500000000000D+00 -6.0082599223592D-01  1.0587228674674D+00
   117  1.1600000000000D+00 -6.1611027128567D-01  1.0649456784461D+00
   118  1.1700000000000D+00 -6.3024220860205D-01  1.0707145366633D+00
   119  1.1800000000000D+00 -6.4321707315179D-01  1.0760079775955D+00
   120  1.1900000000000D+00 -6.5503221254130D-01  1.0808052045579D+00
   121  1.2000000000000D+00 -6.6568704096763D-01  1.0850861552986D+00
   122  1.2100000000000D+00 -6.7518302321826D-01  1.0888315666859D+00
   123  1.2200000000000D+00 -6.8352365475642D-01  1.0920230372680D+00
   124  1.2300000000000D+00 -6.9071443794268D-01  1.0946430874956D+00
   125  1.2400000000000D+00 -6.9676285444899D-01  1.0966752174041D+00
   126  1.2500000000000D+00 -7.0167833392735D-01  1.0981039615588D+00
   127  1.2600000000000D+00 -7.0547221900624D-01  1.0989149410751D+00
   128  1.2700000000000D+00 -7.0815772669620D-01  1.0990949125431D+00
   129  1.2800000000000D+00 -7.0974990628942D-01  1.0986318136841D+00
   130  1.2900000000000D+00 -7.1026559384868D-01  1.0975148055867D+00
   131  1.3000000000000D+00 -7.0972336339015D-01  1.0957343113826D+00
   132  1.3100000000000D+00 -7.0814347486532D-01  1.0932820512275D+00
   133  1.3200000000000D+00 -7.0554781905884D-01  1.0901510734685D+00
   134  1.3300000000000D+00 -7.0195985952730D-01  1.0863357819029D+00
   135  1.3400000000000D+00 -6.9740457170130D-01  1.0818319590245D+00
   136  1.3500000000000D+00 -6.9190837928898D-01  1.0766367851905D+00
   137  1.3600000000000D+00 -6.8549908812108D-01  1.0707488536514D+00
   138  1.3700000000000D+00 -6.7820581757647D-01  1.0641681813795D+00
   139  1.3800000000000D+00 -6.7005892974445D-01  1.0568962156870D+00
   140  1.3900000000000D+00 -6.6108995647303D-01  1.0489358366028D+00
   141  1.4000000000000D+00 -6.5133152446102D-01  1.0402913550053D+00
   142  1.4100000000000D+00 -6.4081727855928D-01  1.0309685065452D+00
   143  1.4200000000000D+00 -6.2958180343943D-01  1.0209744413579D+00
   144  1.4300000000000D+00 -6.1766054380340D-01  1.0103177096390D+00
   145  1.4400000000000D+00 -6.0508972329979D-01  9.9900824313079D-01
   146  1.4500000000000D+00 -5.9190626231970D-01  9.8705733258488D-01
   147  1.4600000000000D+00 -5.7814769484615D-01  9.7447760132623D-01
   148  1.4700000000000D+00 -5.6385208452933D-01  9.6128297497199D-01
   149  1.4800000000000D+00 -5.4905794016438D-01  9.4748864747779D-01
   150  1.4900000000000D+00 -5.3380413074476D-01  9.3311104360427D-01
   151  1.5000000000000D+00 -5.1812980026777D-01  9.1816777796970D-01
   152  1.5100000000000D+00 -5.0207428246241D-01  9.0267761085062D-01
   153  1.5200000000000D+00 -4.8567701561833D-01  8.8666040087764D-01
   154  1.5300000000000D+00 -4.6897745767604D-01  8.7013705485279D-01
   155  1.5400000000000D+00 -4.5201500176176D-01  8.5312947482571D-01
   156  1.5500000000000D+00 -4.3482889231505D-01  8.3566050269376D-01
   157  1.5600000000000D+00 -4.1745814199017D-01  8.1775386248418D-01
   158  1.5700000000000D+00 -3.9994144947423D-01  7.9943410058600D-01
   159  1.5800000000000D+00 -3.8231711839005D-01  7.8072652412910D-01
   160  1.5900000000000D+00 -3.6462297742747D-01  7.6165713776951D-01
   161  1.6000000000000D+00 -3.4689630185019D-01  7.4225257911282D-01
   162  1.6100000000000D+00 -3.2917373652634D-01  7.2254005302917D-01
   163  1.6200000000000D+00 -3.1149122060272D-01  7.0254726511343D-01
   164  1.6300000000000D+00 -2.9388391397786D-01  6.8230235454513D-01
   165  1.6400000000000D+00 -2.7638612566235D-01  6.6183382660868D-01
   166  1.6500000000000D+00 -2.5903124418902D-01  6.4117048513677D-01
   167  1.6600000000000D+00 -2.4185167012777D-01  6.2034136512976D-01
   168  1.6700000000000D+00 -2.2487875087412D-01  5.9937566582862D-01
   169  1.6800000000000D+00 -2.0814271773173D-01  5.7830268447326D-01
   170  1.6900000000000D+00 -1.9167262546253D-01  5.5715175104253D-01
   171  1.7000000000000D+00 -1.7549629429132D-01  5.3595216417639D-01
   172  1.7100000000000D+00 -1.5964025453865D-01  5.1473312859632D-01
   173  1.7200000000000D+00 -1.4412969383957D-01  4.9352369418628D-01
   174  1.7300000000000D+00 -1.2898840711562D-01  4.7235269706697D-01
   175  1.7400000000000D+00 -1.1423874923502D-01  4.5124870278605D-01
   176  1.7500000000000D+00 -9.9901590512958D-02  4.3023995196471D-01
   177  1.7600000000000D+00 -8.5996274974195D-02  4.0935430848967D-01
   178  1.7700000000000D+00 -7.2540581502098D-02  3.8861921058102D-01
   179  1.7800000000000D+00 -5.9550687797465D-02  3.6806162480765D-01
   180  1.7900000000000D+00 -4.7041137227916D-02  3.4770800334288D-01
   181  1.8000000000000D+00 -3.5024808509167D-02  3.2758424454243D-01
   182  1.8100000000000D+00 -2.3512888238161D-02  3.0771565706011D-01
   183  1.8200000000000D+00 -1.2514846255977D-02  2.8812692763395D-01
   184  1.8300000000000D+00 -2.0384137818534D-03  2.6884209263082D-01
   185  1.8400000000000D+00  7.9104356493960D-03  2.4988451358250D-01
   186  1.8500000000000D+00  1.7327502598349D-02  2.3127685661773D-01
   187  1.8600000000000D+00  2.6210375381088D-02  2.1304107617660D-01
   188  1.8700000000000D+00  3.4558441227304D-02  1.9519840268091D-01
   189  1.8800000000000D+00  4.2372897195069D-02  1.7776933744286D-01
   190  1.8900000000000D+00  4.9656746158102D-02  1.6077363731524D-01
   191  1.9000000000000D+00  5.6414826582680D-02  1.4423034449794D-01
   192  1.9100000000000D+00  6.2653766358286D-02  1.2815773953338D-01
   193  1.9200000000000D+00  6.8381990184461D-02  1.1257335794817D-01
   194  1.9300000000000D+00  7.3609807162305D-02  9.7494105040434D-02
   195  1.9400000000000D+00  7.8349437308114D-02  8.2936313822761D-02
   196  1.9500000000000D+00  8.2614606214774D-02  6.8915313594754D-02
   197  1.9600000000000D+00  8.6420329381861D-02  5.5445206870940D-02
   198  1.9700000000000D+00  8.9782627962249D-02  4.2538638569042D-02
   199  1.9800000000000D+00  9.2718075846092D-02  3.0206362130018D-02
   200  1.9900000000000D+00  9.5243694004361D-02  1.8457215994178D-02
   201  2.0000000000000D+00  9.7376966312021D-02  7.2982502294387D-03
   202  2.0100000000000D+00  9.9135804360743D-02 -3.2651966016716D-03
   203  2.0200000000000D+00  1.0053838503959D-01 -1.3229576725228D-02
   204  2.0300000000000D+00  1.0160310415079D-01 -2.2593067058499D-02
   205  2.0400000000000D+00  1.0234848348640D-01 -3.1355555916390D-02
   206  2.0500000000000D+00  1.0279309035312D-01 -3.9518612744306D-02
   207  2.0600000000000D+00  1.0295545740499D-01 -4.7085455278210D-02
   208  2.0700000000000D+00  1.0285400341524D-01 -5.4060913756753D-02
   209  2.0800000000000D+00  1.0250695649387D-01 -6.0451391313257D-02
   210  2.0900000000000D+00  1.0193227927944D-01 -6.6264820859972D-02
   211  2.1000000000000D+00  1.0114759737583D-01 -7.1510618081782D-02
   212  2.1100000000000D+00  1.0017013117685D-01 -7.6199630483085D-02
   213  2.1200000000000D+00  9.9016631661691D-02 -8.0344082364264D-02
   214  2.1300000000000D+00  9.7703320375347D-02 -8.3957515996891D-02
   215  2.1400000000000D+00  9.6245835020839D-02 -8.7054727901755D-02
   216  2.1500000000000D+00  9.4659179658566D-02 -8.9651701603371D-02
   217  2.1600000000000D+00  9.2957681318707D-02 -9.1765535578266D-02
   218  2.1700000000000D+00  9.1154953490991D-02 -9.3414366366550D-02
   219  2.1800000000000D+00  8.9263864238470D-02 -9.4617289011420D-02
   220  2.1900000000000D+00  8.7296514341594D-02 -9.5394270802120D-02
   221  2.2000000000000D+00  8.5264220333155D-02 -9.5766062715509D-02
   222  2.2100000000000D+00  8.3177505272452D-02 -9.5754106637837D-02
   223  2.2200000000000D+00  8.1046099211962D-02 -9.5380437227729D-02
   224  2.2300000000000D+00  7.8878943259786D-02 -9.4667583240944D-02
   225  2.2400000000000D+00  7.6684204632330D-02 -9.3638463271503D-02
   226  2.2500000000000D+00  7.4469297886478D-02 -9.2316279687689D-02
   227  2.2600000000000D+00  7.2240910083926D-02 -9.0724412544785D-02
   228  2.2700000000000D+00  7.0005037215032D-02 -8.8886309006597D-02
   229  2.2800000000000D+00  6.7767022410286D-02 -8.6825374693594D-02
   230  2.2900000000000D+00  6.5531600010054D-02 -8.4564864796575D-02
   231  2.3000000000000D+00  6.3302945692609D-02 -8.2127775420791D-02
   232  2.3100000000000D+00  6.1084727458467D-02 -7.9536737863548D-02
   233  2.3200000000000D+00  5.8880160554146D-02 -7.6813915586864D-02
   234  2.3300000000000D+00  5.6692063460072D-02 -7.3980905408163D-02
   235  2.3400000000000D+00  5.4522914802872D-02 -7.1058641766357D-02
   236  2.3500000000000D+00  5.2374908344761D-02 -6.8067309689353D-02
   237  2.3600000000000D+00  5.0250007215800D-02 -6.5026262630411D-02
   238  2.3700000000000D+00  4.8149997485417D-02 -6.1953945559802D-02
   239  2.3800000000000D+00  4.6076533469834D-02 -5.8867831719919D-02
   240  2.3900000000000D+00  4.4031183256142D-02 -5.5784363113894D-02
   241  2.4000000000000D+00  4.2015469191619D-02 -5.2718900361076D-02
   242  2.4100000000000D+00  4.0030897463020D-02 -4.9685687495064D-02
   243  2.4200000000000D+00  3.8078988756257D-02 -4.6697819688334D-02
   244  2.4300000000000D+00  3.6161299528137D-02 -4.3767223853826D-02
   245  2.4400000000000D+00  3.4279433218892D-02 -4.0904652478298D-02
   246  2.4500000000000D+00  3.2435052577339D-02 -3.8119680249719D-02
   247  2.4600000000000D+00  3.0629880615299D-02 -3.5420714624326D-02
   248  2.4700000000000D+00  2.8865694498156D-02 -3.2815016241601D-02
   249  2.4800000000000D+00  2.7144319555136D-02 -3.0308722751031D-02
   250  2.4900000000000D+00  2.5467613743126D-02 -2.7906884196183D-02
   251  2.5000000000000D+00  2.3837448384743D-02 -2.5613504748370D-02
   252  2.5100000000000D+00  2.2255687496825D-02 -2.3431588754123D-02
   253  2.5200000000000D+00  2.0724162763287D-02 -2.1363193135856D-02
   254  2.5300000000000D+00  1.9244647326294D-02 -1.9409483417621D-02
   255  2.5400000000000D+00  1.7818826885534D-02 -1.7570794599769D-02
   256  2.5500000000000D+00  1.6448272859943D-02 -1.5846692321657D-02
   257  2.5600000000000D+00  1.5134416093731D-02 -1.4236035631310D-02
   258  2.5700000000000D+00  1.3878517412086D-02 -1.2737044348512D-02
   259  2.5800000000000D+00  1.2681645235822D-02 -1.1347362018911D-02
   260  2.5900000000000D+00  1.1544655309364D-02 -1.0064118573199D-02
   261  2.6000000000000D+00  1.0468167733862D-02 -8.8839965360057D-03
   262  2.6100000000000D+00  9.4525529030435D-03 -7.8032908323849D-03
   263  2.6200000000000D+00  8.4979214410634D-03 -6.8179661359550D-03
   264  2.6300000000000D+00  7.6041124573743D-03 -5.9237162916918D-03
   265  2.6400000000000D+00  6.7706894302166D-03 -5.1160178907822D-03
   266  2.6500000000000D+00  5.9969419717360D-03 -4.3901792585142D-03
   267  2.6600000000000D+00  5.2818869536184D-03 -3.7413900668807D-03
   268  2.6700000000000D+00  4.6242744476376D-03 -3.1647668625368D-03
   269  2.6800000000000D+00  4.0226003847302D-03 -2.6553927283899D-03
   270  2.6900000000000D+00  3.4751192575053D-03 -2.2083564550983D-03
   271  2.7000000000000D+00  2.9798593506740D-03 -1.8187890138189D-03
   272  2.7100000000000D+00  2.5346434579546D-03 -1.4818944453465D-03
   273  2.7200000000000D+00  2.1371098508683D-03 -1.1929795427182D-03
   274  2.7300000000000D+00  1.7847353789134D-03 -9.4748095664384D-04
   275  2.7400000000000D+00  1.4748604300075D-03 -7.4098860001279D-04
   276  2.7500000000000D+00  1.2047145674136D-03 -5.6926721404473D-04
   277  2.7600000000000D+00  9.7144439133187D-04 -4.2827490729911D-04
   278  2.7700000000000D+00  7.7213994364737D-04 -3.1418003545651D-04
   279  2.7800000000000D+00  6.0386160618539D-04 -2.2337577506919D-04
   280  2.7900000000000D+00  4.6366824154497D-04 -1.5249205912840D-04
   281  2.8000000000000D+00  3.4864390223289D-04 -9.8405889773491D-05
   282  2.8100000000000D+00  2.5592261661229D-04 -5.8246731457578D-05
   283  2.8200000000000D+00  1.8271363474115D-04 -2.9397711668483D-05
   284  2.8300000000000D+00  1.2632428907215D-04 -9.5537698595246D-06
   285  2.8400000000000D+00  8.4183300738305D-05  3.3459096869752D-06
   286  2.8500000000000D+00  5.3823895242343D-05  1.0940512944393D-05
   287  2.8600000000000D+00  3.3028655290674D-05  1.4999098182410D-05
   288  2.8700000000000D+00  1.9738616938424D-05  1.6945291061365D-05
   289  2.8800000000000D+00  1.2152095268431D-05  1.8028863986654D-05
   290  2.8900000000000D+00  8.5376434694116D-06  1.8802192265494D-05
   291  2.9000000000000D+00  7.0288331122781D-06  1.8547839673806D-05
   292  2.9100000000000D+00  6.2541576609684D-06  1.6875560958287D-05
   293  2.9200000000000D+00  4.7559806748225D-06  1.2569816012122D-05
   294  2.9300000000000D+00  2.8807328514066D-06  7.3235580913008D-06
   295  2.9400000000000D+00  9.5747489970912D-07  2.3329455748241D-06
   296  2.9500000000000D+00 -3.2139110170323D-07 -8.7454716848115D-07
   297  2.9600000000000D+00 -6.3723264540816D-07 -1.7151864962379D-06
   298  2.9700000000000D+00 -4.6620378778731D-07 -1.2407628733112D-06
   299  2.9800000000000D+00 -4.8707958593078D-08 -1.2820770538950D-07
   300  2.9900000000000D+00  9.8829947774544D-08  3.1171655625872D-07
   301  3.0000000000000D+00  1.2185790596780D-07  3.8698356867680D-07
   302  3.0100000000000D+00  6.3846538264054D-08  2.0395587576476D-07
   303  3.0200000000000D+00 -5.4955285011236D-09 -1.4795105844804D-08
   304  3.0300000000000D+00 -1.6541677404482D-08 -4.4533636391820D-08
   305  3.0400000000000D+00 -1.5362020146385D-08 -4.1357753673612D-08
   306  3.0500000000000D+00 -4.3399725098189D-09 -1.1684108750084D-08
   307  3.0600000000000D+00  0.0000000000000D+00  0.0000000000000D+00
   308  3.0700000000000D+00  0.0000000000000D+00  0.0000000000000D+00
   309  3.0800000000000D+00  0.0000000000000D+00  0.0000000000000D+00
   310  3.0900000000000D+00  0.0000000000000D+00  0.0000000000000D+00
   311  3.1000000000000D+00  0.0000000000000D+00  0.0000000000000D+00
   312  3.1100000000000D+00  0.0000000000000D+00  0.0000000000000D+00
   313  3.1200000000000D+00  0.0000000000000D+00  0.0000000000000D+00
   314  3.1300000000000D+00  0.0000000000000D+00  0.0000000000000D+00
   315  3.1400000000000D+00  0.0000000000000D+00  0.0000000000000D+00
   316  3.1500000000000D+00  0.0000000000000D+00  0.0000000000000D+00
   317  3.1600000000000D+00  0.0000000000000D+00  0.0000000000000D+00
   318  3.1700000000000D+00  0.0000000000000D+00  0.0000000000000D+00
   319  3.1800000000000D+00  0.0000000000000D+00  0.0000000000000D+00
   320  3.1900000000000D+00  0.0000000000000D+00  0.0000000000000D+00
   321  3.2000000000000D+00  0.0000000000000D+00  0.0000000000000D+00
   322  3.2100000000000D+00  0.0000000000000D+00  0.0000000000000D+00
   323  3.2200000000000D+00  0.0000000000000D+00  0.0000000000000D+00
   324  3.2300000000000D+00  0.0000000000000D+00  0.0000000000000D+00
   325  3.2400000000000D+00  0.0000000000000D+00  0.0000000000000D+00
   326  3.2500000000000D+00  0.0000000000000D+00  0.0000000000000D+00
   327  3.2600000000000D+00  0.0000000000000D+00  0.0000000000000D+00
   328  3.2700000000000D+00  0.0000000000000D+00  0.0000000000000D+00
   329  3.2800000000000D+00  0.0000000000000D+00  0.0000000000000D+00
   330  3.2900000000000D+00  0.0000000000000D+00  0.0000000000000D+00
   331  3.3000000000000D+00  0.0000000000000D+00  0.0000000000000D+00
   332  3.3100000000000D+00  0.0000000000000D+00  0.0000000000000D+00
   333  3.3200000000000D+00  0.0000000000000D+00  0.0000000000000D+00
   334  3.3300000000000D+00  0.0000000000000D+00  0.0000000000000D+00
   335  3.3400000000000D+00  0.0000000000000D+00  0.0000000000000D+00
   336  3.3500000000000D+00  0.0000000000000D+00  0.0000000000000D+00
   337  3.3600000000000D+00  0.0000000000000D+00  0.0000000000000D+00
   338  3.3700000000000D+00  0.0000000000000D+00  0.0000000000000D+00
   339  3.3800000000000D+00  0.0000000000000D+00  0.0000000000000D+00
   340  3.3900000000000D+00  0.0000000000000D+00  0.0000000000000D+00
   341  3.4000000000000D+00  0.0000000000000D+00  0.0000000000000D+00
   342  3.4100000000000D+00  0.0000000000000D+00  0.0000000000000D+00
   343  3.4200000000000D+00  0.0000000000000D+00  0.0000000000000D+00
   344  3.4300000000000D+00  0.0000000000000D+00  0.0000000000000D+00
   345  3.4400000000000D+00  0.0000000000000D+00  0.0000000000000D+00
   346  3.4500000000000D+00  0.0000000000000D+00  0.0000000000000D+00
   347  3.4600000000000D+00  0.0000000000000D+00  0.0000000000000D+00
   348  3.4700000000000D+00  0.0000000000000D+00  0.0000000000000D+00
   349  3.4800000000000D+00  0.0000000000000D+00  0.0000000000000D+00
   350  3.4900000000000D+00  0.0000000000000D+00  0.0000000000000D+00
   351  3.5000000000000D+00  0.0000000000000D+00  0.0000000000000D+00
   352  3.5100000000000D+00  0.0000000000000D+00  0.0000000000000D+00
   353  3.5200000000000D+00  0.0000000000000D+00  0.0000000000000D+00
   354  3.5300000000000D+00  0.0000000000000D+00  0.0000000000000D+00
   355  3.5400000000000D+00  0.0000000000000D+00  0.0000000000000D+00
   356  3.5500000000000D+00  0.0000000000000D+00  0.0000000000000D+00
   357  3.5600000000000D+00  0.0000000000000D+00  0.0000000000000D+00
   358  3.5700000000000D+00  0.0000000000000D+00  0.0000000000000D+00
   359  3.5800000000000D+00  0.0000000000000D+00  0.0000000000000D+00
   360  3.5900000000000D+00  0.0000000000000D+00  0.0000000000000D+00
   361  3.6000000000000D+00  0.0000000000000D+00  0.0000000000000D+00
   362  3.6100000000000D+00  0.0000000000000D+00  0.0000000000000D+00
   363  3.6200000000000D+00  0.0000000000000D+00  0.0000000000000D+00
   364  3.6300000000000D+00  0.0000000000000D+00  0.0000000000000D+00
   365  3.6400000000000D+00  0.0000000000000D+00  0.0000000000000D+00
   366  3.6500000000000D+00  0.0000000000000D+00  0.0000000000000D+00
   367  3.6600000000000D+00  0.0000000000000D+00  0.0000000000000D+00
   368  3.6700000000000D+00  0.0000000000000D+00  0.0000000000000D+00
   369  3.6800000000000D+00  0.0000000000000D+00  0.0000000000000D+00
   370  3.6900000000000D+00  0.0000000000000D+00  0.0000000000000D+00
   371  3.7000000000000D+00  0.0000000000000D+00  0.0000000000000D+00
   372  3.7100000000000D+00  0.0000000000000D+00  0.0000000000000D+00
   373  3.7200000000000D+00  0.0000000000000D+00  0.0000000000000D+00
   374  3.7300000000000D+00  0.0000000000000D+00  0.0000000000000D+00
   375  3.7400000000000D+00  0.0000000000000D+00  0.0000000000000D+00
   376  3.7500000000000D+00  0.0000000000000D+00  0.0000000000000D+00
   377  3.7600000000000D+00  0.0000000000000D+00  0.0000000000000D+00
   378  3.7700000000000D+00  0.0000000000000D+00  0.0000000000000D+00
   379  3.7800000000000D+00  0.0000000000000D+00  0.0000000000000D+00
   380  3.7900000000000D+00  0.0000000000000D+00  0.0000000000000D+00
   381  3.8000000000000D+00  0.0000000000000D+00  0.0000000000000D+00
   382  3.8100000000000D+00  0.0000000000000D+00  0.0000000000000D+00
   383  3.8200000000000D+00  0.0000000000000D+00  0.0000000000000D+00
   384  3.8300000000000D+00  0.0000000000000D+00  0.0000000000000D+00
   385  3.8400000000000D+00  0.0000000000000D+00  0.0000000000000D+00
   386  3.8500000000000D+00  0.0000000000000D+00  0.0000000000000D+00
   387  3.8600000000000D+00  0.0000000000000D+00  0.0000000000000D+00
   388  3.8700000000000D+00  0.0000000000000D+00  0.0000000000000D+00
   389  3.8800000000000D+00  0.0000000000000D+00  0.0000000000000D+00
   390  3.8900000000000D+00  0.0000000000000D+00  0.0000000000000D+00
   391  3.9000000000000D+00  0.0000000000000D+00  0.0000000000000D+00
   392  3.9100000000000D+00  0.0000000000000D+00  0.0000000000000D+00
   393  3.9200000000000D+00  0.0000000000000D+00  0.0000000000000D+00
   394  3.9300000000000D+00  0.0000000000000D+00  0.0000000000000D+00
   395  3.9400000000000D+00  0.0000000000000D+00  0.0000000000000D+00
   396  3.9500000000000D+00  0.0000000000000D+00  0.0000000000000D+00
   397  3.9600000000000D+00  0.0000000000000D+00  0.0000000000000D+00
   398  3.9700000000000D+00  0.0000000000000D+00  0.0000000000000D+00
   399  3.9800000000000D+00  0.0000000000000D+00  0.0000000000000D+00
   400  3.9900000000000D+00  0.0000000000000D+00  0.0000000000000D+00
   401  4.0000000000000D+00  0.0000000000000D+00  0.0000000000000D+00
   402  4.0100000000000D+00  0.0000000000000D+00  0.0000000000000D+00
   403  4.0200000000000D+00  0.0000000000000D+00  0.0000000000000D+00
   404  4.0300000000000D+00  0.0000000000000D+00  0.0000000000000D+00
   405  4.0400000000000D+00  0.0000000000000D+00  0.0000000000000D+00
   406  4.0500000000000D+00  0.0000000000000D+00  0.0000000000000D+00
   407  4.0600000000000D+00  0.0000000000000D+00  0.0000000000000D+00
   408  4.0700000000000D+00  0.0000000000000D+00  0.0000000000000D+00
   409  4.0800000000000D+00  0.0000000000000D+00  0.0000000000000D+00
   410  4.0900000000000D+00  0.0000000000000D+00  0.0000000000000D+00
   411  4.1000000000000D+00  0.0000000000000D+00  0.0000000000000D+00
   412  4.1100000000000D+00  0.0000000000000D+00  0.0000000000000D+00
   413  4.1200000000000D+00  0.0000000000000D+00  0.0000000000000D+00
   414  4.1300000000000D+00  0.0000000000000D+00  0.0000000000000D+00
   415  4.1400000000000D+00  0.0000000000000D+00  0.0000000000000D+00
   416  4.1500000000000D+00  0.0000000000000D+00  0.0000000000000D+00
   417  4.1600000000000D+00  0.0000000000000D+00  0.0000000000000D+00
   418  4.1700000000000D+00  0.0000000000000D+00  0.0000000000000D+00
   419  4.1800000000000D+00  0.0000000000000D+00  0.0000000000000D+00
   420  4.1900000000000D+00  0.0000000000000D+00  0.0000000000000D+00
   421  4.2000000000000D+00  0.0000000000000D+00  0.0000000000000D+00
   422  4.2100000000000D+00  0.0000000000000D+00  0.0000000000000D+00