Sc    ONCVPSP-3.3.1  r_core=   2.91081   2.94574   2.37654
     21.0000     11.0000      210904    zatom,zion,pspd
     8      11   2     4   600     0    pspcod,pspxc,lmax,lloc,mmax,r2well
  5.99000000  0.00000000  0.00000000    rchrg fchrg qchrg
     2     2     2     0    nproj
     3     1           extension_switch
     3     2     0    nprojso
   0                        -3.5667731952200D-01  1.3421298903008D+00
     1  0.0000000000000D+00 -2.0811408152355D-12 -8.2173157167631D-13
     2  1.0000000000000D-02  1.5559049344569D-02  4.7309727079031D-02
     3  2.0000000000000D-02  3.1101348242227D-02  9.4557076472690D-02
     4  3.0000000000000D-02  4.6610200718770D-02  1.4167976361080D-01
     5  4.0000000000000D-02  6.2069019567665D-02  1.8861569001038D-01
     6  5.0000000000000D-02  7.7461380290047D-02  2.3530303596142D-01
     7  6.0000000000000D-02  9.2771074503576D-02  2.8168035278396D-01
     8  7.0000000000000D-02  1.0798216264551D-01  3.2768665451420D-01
     9  8.0000000000000D-02  1.2307902579749D-01  3.7326150887885D-01
    10  9.0000000000000D-02  1.3804641646199D-01  4.1834512741714D-01
    11  1.0000000000000D-01  1.5286950812365D-01  4.6287845461168D-01
    12  1.1000000000000D-01  1.6753394343208D-01  5.0680325589062D-01
    13  1.2000000000000D-01  1.8202588084700D-01  5.5006220436492D-01
    14  1.3000000000000D-01  1.9633203959092D-01  5.9259896616665D-01
    15  1.4000000000000D-01  2.1043974275973D-01  6.3435828425597D-01
    16  1.5000000000000D-01  2.2433695844693D-01  6.7528606056676D-01
    17  1.6000000000000D-01  2.3801233874322D-01  7.1532943636311D-01
    18  1.7000000000000D-01  2.5145525647937D-01  7.5443687068155D-01
    19  1.8000000000000D-01  2.6465583958717D-01  7.9255821673643D-01
    20  1.9000000000000D-01  2.7760500296027D-01  8.2964479616904D-01
    21  2.0000000000000D-01  2.9029447770423D-01  8.6564947102380D-01
    22  2.1000000000000D-01  3.0271683767306D-01  9.0052671333849D-01
    23  2.2000000000000D-01  3.1486552319764D-01  9.3423267223857D-01
    24  2.3000000000000D-01  3.2673486191984D-01  9.6672523842947D-01
    25  2.4000000000000D-01  3.3832008665514D-01  9.9796410598440D-01
    26  2.5000000000000D-01  3.4961735021546D-01  1.0279108313292D+00
    27  2.6000000000000D-01  3.6062373713330D-01  1.0565288893297D+00
    28  2.7000000000000D-01  3.7133727223775D-01  1.0837837263917D+00
    29  2.8000000000000D-01  3.8175692604280D-01  1.1096428104871D+00
    30  2.9000000000000D-01  3.9188261691805D-01  1.1340756780256D+00
    31  3.0000000000000D-01  4.0171521002218D-01  1.1570539774957D+00
    32  3.1000000000000D-01  4.1125651298947D-01  1.1785515098011D+00
    33  3.2000000000000D-01  4.2050926837023D-01  1.1985442652283D+00
    34  3.3000000000000D-01  4.2947714283569D-01  1.2170104569820D+00
    35  3.4000000000000D-01  4.3816471316904D-01  1.2339305512319D+00
    36  3.5000000000000D-01  4.4657744907373D-01  1.2492872936193D+00
    37  3.6000000000000D-01  4.5472169284123D-01  1.2630657321779D+00
    38  3.7000000000000D-01  4.6260463592992D-01  1.2752532366282D+00
    39  3.8000000000000D-01  4.7023429251767D-01  1.2858395140101D+00
    40  3.9000000000000D-01  4.7761947009980D-01  1.2948166206248D+00
    41  4.0000000000000D-01  4.8476973721482D-01  1.3021789702621D+00
    42  4.1000000000000D-01  4.9169538838925D-01  1.3079233386958D+00
    43  4.2000000000000D-01  4.9840740640275D-01  1.3120488644341D+00
    44  4.3000000000000D-01  5.0491742198375D-01  1.3145570457208D+00
    45  4.4000000000000D-01  5.1123767105467D-01  1.3154517337857D+00
    46  4.5000000000000D-01  5.1738094965451D-01  1.3147391223503D+00
    47  4.6000000000000D-01  5.2336056667479D-01  1.3124277334022D+00
    48  4.7000000000000D-01  5.2919029455266D-01  1.3085283992540D+00
    49  4.8000000000000D-01  5.3488431807265D-01  1.3030542409128D+00
    50  4.9000000000000D-01  5.4045718143538D-01  1.2960206427892D+00
    51  5.0000000000000D-01  5.4592373375845D-01  1.2874452237829D+00
    52  5.1000000000000D-01  5.5129907318063D-01  1.2773478047859D+00
    53  5.2000000000000D-01  5.5659848974626D-01  1.2657503726532D+00
    54  5.3000000000000D-01  5.6183740725206D-01  1.2526770406945D+00
    55  5.4000000000000D-01  5.6703132424270D-01  1.2381540057463D+00
    56  5.5000000000000D-01  5.7219575434608D-01  1.2222095018919D+00
    57  5.6000000000000D-01  5.7734616614236D-01  1.2048737509011D+00
    58  5.7000000000000D-01  5.8249792276373D-01  1.1861789094658D+00
    59  5.8000000000000D-01  5.8766622142431D-01  1.1661590133164D+00
    60  5.9000000000000D-01  5.9286603308089D-01  1.1448499183080D+00
    61  6.0000000000000D-01  5.9811204242662D-01  1.1222892385688D+00
    62  6.1000000000000D-01  6.0341858841976D-01  1.0985162818135D+00
    63  6.2000000000000D-01  6.0879960554951D-01  1.0735719819236D+00
    64  6.3000000000000D-01  6.1426856603979D-01  1.0474988289067D+00
    65  6.4000000000000D-01  6.1983842319044D-01  1.0203407963493D+00
    66  6.5000000000000D-01  6.2552155605274D-01  9.9214326648193D-01
    67  6.6000000000000D-01  6.3132971563351D-01  9.6295295298274D-01
    68  6.7000000000000D-01  6.3727397281801D-01  9.3281782164653D-01
    69  6.8000000000000D-01  6.4336466819801D-01  9.0178700905355D-01
    70  6.9000000000000D-01  6.4961136398611D-01  8.6991073937460D-01
    71  7.0000000000000D-01  6.5602279819209D-01  8.3724023945354D-01
    72  7.1000000000000D-01  6.6260684123059D-01  8.0382765231174D-01
    73  7.2000000000000D-01  6.6937045512289D-01  7.6972594922242D-01
    74  7.3000000000000D-01  6.7631965544783D-01  7.3498884050599D-01
    75  7.4000000000000D-01  6.8345947618927D-01  6.9967068520042D-01
    76  7.5000000000000D-01  6.9079393761847D-01  6.6382639976324D-01
    77  7.6000000000000D-01  6.9832601734125D-01  6.2751136596442D-01
    78  7.7000000000000D-01  7.0605762462954D-01  5.9078133813102D-01
    79  7.8000000000000D-01  7.1398957814746D-01  5.5369234990691D-01
    80  7.9000000000000D-01  7.2212158717101D-01  5.1630062069198D-01
    81  8.0000000000000D-01  7.3045223638991D-01  4.7866246192666D-01
    82  8.1000000000000D-01  7.3897897436837D-01  4.4083418338864D-01
    83  8.2000000000000D-01  7.4769810573033D-01  4.0287199966921D-01
    84  8.3000000000000D-01  7.5660478712219D-01  3.6483193699695D-01
    85  8.4000000000000D-01  7.6569302699416D-01  3.2676974057666D-01
    86  8.5000000000000D-01  7.7495568922863D-01  2.8874078261104D-01
    87  8.6000000000000D-01  7.8438450063118D-01  2.5079997117210D-01
    88  8.7000000000000D-01  7.9397006228717D-01  2.1300166008818D-01
    89  8.8000000000000D-01  8.0370186477361D-01  1.7539956001132D-01
    90  8.9000000000000D-01  8.1356830720316D-01  1.3804665082822D-01
    91  9.0000000000000D-01  8.2355672006381D-01  1.0099509557578D-01
    92  9.1000000000000D-01  8.3365339180503D-01  6.4296156020268D-02
    93  9.2000000000000D-01  8.4384359910783D-01  2.8000110056461D-02
    94  9.3000000000000D-01  8.5411164076367D-01 -7.8438289199226D-03
    95  9.4000000000000D-01  8.6444087507417D-01 -4.3187590516241D-02
    96  9.5000000000000D-01  8.7481376067123D-01 -7.7984323576853D-02
    97  9.6000000000000D-01  8.8521190064497D-01 -1.1218847000424D-01
    98  9.7000000000000D-01  8.9561608985487D-01 -1.4575583602881D-01
    99  9.8000000000000D-01  9.0600636528793D-01 -1.7864366079347D-01
   100  9.9000000000000D-01  9.1636205931664D-01 -2.1081068212375D-01
   101  1.0000000000000D+00  9.2666185569868D-01 -2.4221719935945D-01
   102  1.0100000000000D+00  9.3688384814996D-01 -2.7282513312927D-01
   103  1.0200000000000D+00  9.4700560131308D-01 -3.0259808195544D-01
   104  1.0300000000000D+00  9.5700421393389D-01 -3.3150137558128D-01
   105  1.0400000000000D+00  9.6685638405039D-01 -3.5950212492123D-01
   106  1.0500000000000D+00  9.7653847599035D-01 -3.8656926853879D-01
   107  1.0600000000000D+00  9.8602658896665D-01 -4.1267361556487D-01
   108  1.0700000000000D+00  9.9529662705263D-01 -4.3778788497603D-01
   109  1.0800000000000D+00  1.0043243703144D+00 -4.6188674115892D-01
   110  1.0900000000000D+00  1.0130855468712D+00 -4.8494682569514D-01
   111  1.1000000000000D+00  1.0215559056517D+00 -5.0694678530748D-01
   112  1.1100000000000D+00  1.0297112896099D+00 -5.2786729591665D-01
   113  1.1200000000000D+00  1.0375277091608D+00 -5.4769108276564D-01
   114  1.1300000000000D+00  1.0449814155971D+00 -5.6640293657635D-01
   115  1.1400000000000D+00  1.0520489742436D+00 -5.8398972571186D-01
   116  1.1500000000000D+00  1.0587073371081D+00 -6.0044040432440D-01
   117  1.1600000000000D+00  1.0649339147886D+00 -6.1574601647946D-01
   118  1.1700000000000D+00  1.0707066473962D+00 -6.2989969625348D-01
   119  1.1800000000000D+00  1.0760040742586D+00 -6.4289666381098D-01
   120  1.1900000000000D+00  1.0808054021686D+00 -6.5473421747501D-01
   121  1.2000000000000D+00  1.0850905719510D+00 -6.6541172181435D-01
   122  1.2100000000000D+00  1.0888403231225D+00 -6.7493059177951D-01
   123  1.2200000000000D+00  1.0920362564260D+00 -6.8329427292401D-01
   124  1.2300000000000D+00  1.0946608940295D+00 -6.9050821776103D-01
   125  1.2400000000000D+00  1.0966977371856D+00 -6.9657985831142D-01
   126  1.2500000000000D+00  1.0981313211557D+00 -7.0151857490467D-01
   127  1.2600000000000D+00  1.0989472672115D+00 -7.0533566130567D-01
   128  1.2700000000000D+00  1.0991323315416D+00 -7.0804428624820D-01
   129  1.2800000000000D+00  1.0986744508934D+00 -7.0965945145976D-01
   130  1.2900000000000D+00  1.0975627847953D+00 -7.1019794627246D-01
   131  1.3000000000000D+00  1.0957877542217D+00 -7.0967829892439D-01
   132  1.3100000000000D+00  1.0933410765643D+00 -7.0812072465623D-01
   133  1.3200000000000D+00  1.0902157967925D+00 -7.0554707071962D-01
   134  1.3300000000000D+00  1.0864063147080D+00 -7.0198075842196D-01
   135  1.3400000000000D+00  1.0819084081885D+00 -6.9744672232976D-01
   136  1.3500000000000D+00  1.0767192523540D+00 -6.9197134676836D-01
   137  1.3600000000000D+00  1.0708374345999D+00 -6.8558239975791D-01
   138  1.3700000000000D+00  1.0642629654296D+00 -6.7830896452419D-01
   139  1.3800000000000D+00  1.0569972850795D+00 -6.7018136874057D-01
   140  1.3900000000000D+00  1.0490432659060D+00 -6.6123111164983D-01
   141  1.4000000000000D+00  1.0404052105295D+00 -6.5149078922369D-01
   142  1.4100000000000D+00  1.0310888457720D+00 -6.4099401752534D-01
   143  1.4200000000000D+00  1.0211013123859D+00 -6.2977535443280D-01
   144  1.4300000000000D+00  1.0104511506487D+00 -6.1787021989672D-01
   145  1.4400000000000D+00  9.9914828187048D-01 -6.0531481489840D-01
   146  1.4500000000000D+00  9.8720398588074D-01 -5.9214603928046D-01
   147  1.4600000000000D+00  9.7463087461783D-01 -5.7840140862459D-01
   148  1.4700000000000D+00  9.6144286187600D-01 -5.6411897034830D-01
   149  1.4800000000000D+00  9.4765512938181D-01 -5.4933721919748D-01
   150  1.4900000000000D+00  9.3328408929286D-01 -5.3409501230796D-01
   151  1.5000000000000D+00  9.1834734328455D-01 -5.1843148401257D-01
   152  1.5100000000000D+00  9.0286363838674D-01 -5.0238596056402D-01
   153  1.5200000000000D+00  8.8685281971742D-01 -4.8599787495243D-01
   154  1.5300000000000D+00  8.7033578033950D-01 -4.6930668197793D-01
   155  1.5400000000000D+00  8.5333440837819D-01 -4.5235177376163D-01
   156  1.5500000000000D+00  8.3587153166368D-01 -4.3517239584342D-01
   157  1.5600000000000D+00  8.1797086005727D-01 -4.1780756404782D-01
   158  1.5700000000000D+00  7.9965692572858D-01 -4.0029598226098D-01
   159  1.5800000000000D+00  7.8095502158093D-01 -3.8267596128696D-01
   160  1.5900000000000D+00  7.6189113808416D-01 -3.6498533892753D-01
   161  1.6000000000000D+00  7.4249189874629D-01 -3.4726140143254D-01
   162  1.6100000000000D+00  7.2278449447765D-01 -3.2954080646944D-01
   163  1.6200000000000D+00  7.0279661710087D-01 -3.1185950773231D-01
   164  1.6300000000000D+00  6.8255639226099D-01 -2.9425268134562D-01
   165  1.6400000000000D+00  6.6209231199644D-01 -2.7675465415164D-01
   166  1.6500000000000D+00  6.4143316723332D-01 -2.5939883404443D-01
   167  1.6600000000000D+00  6.2060798045593D-01 -2.4221764240533D-01
   168  1.6700000000000D+00  5.9964593883069D-01 -2.2524244880965D-01
   169  1.6800000000000D+00  5.7857632801550D-01 -2.0850350802495D-01
   170  1.6900000000000D+00  5.5742846695042D-01 -1.9202989947504D-01
   171  1.7000000000000D+00  5.3623164383014D-01 -1.7584946915662D-01
   172  1.7100000000000D+00  5.1501505357432D-01 -1.5998877418332D-01
   173  1.7200000000000D+00  4.9380773695766D-01 -1.4447302991431D-01
   174  1.7300000000000D+00  4.7263852173275D-01 -1.2932605983600D-01
   175  1.7400000000000D+00  4.5153596586796D-01 -1.1457024813144D-01
   176  1.7500000000000D+00  4.3052830324073D-01 -1.0022649509016D-01
   177  1.7600000000000D+00  4.0964339187527D-01 -8.6314175280830D-02
   178  1.7700000000000D+00  3.8890866505500D-01 -7.2851098611177D-02
   179  1.7800000000000D+00  3.6835108538128D-01 -5.9853474198877D-02
   180  1.7900000000000D+00  3.4799710207114D-01 -4.7335877134564D-02
   181  1.8000000000000D+00  3.2787261157588D-01 -3.5311218078521D-02
   182  1.8100000000000D+00  3.0800292173601D-01 -2.3790715711384D-02
   183  1.8200000000000D+00  2.8841271960503D-01 -1.2783872017039D-02
   184  1.8300000000000D+00  2.6912604303025D-01 -2.2984503393178D-03
   185  1.8400000000000D+00  2.5016625622331D-01  7.6595437548760D-03
   186  1.8500000000000D+00  2.3155602922512D-01  1.7085878957734D-02
   187  1.8600000000000D+00  2.1331732165139D-01  2.5978111948211D-02
   188  1.8700000000000D+00  1.9547137039245D-01  3.4335598614289D-02
   189  1.8800000000000D+00  1.7803868455243D-01  4.2159505025354D-02
   190  1.8900000000000D+00  1.6103903011352D-01  4.9452803485668D-02
   191  1.9000000000000D+00  1.4449145979791D-01  5.6220302338683D-02
   192  1.9100000000000D+00  1.2841426602751D-01  6.2468599887429D-02
   193  1.9200000000000D+00  1.1282499759486D-01  6.8206091817574D-02
   194  1.9300000000000D+00  9.7740574583707D-02  7.3443058747733D-02
   195  1.9400000000000D+00  8.3177346377472D-02  7.8191692751233D-02
   196  1.9500000000000D+00  6.9150659749483D-02  8.2465692410437D-02
   197  1.9600000000000D+00  5.5674635518006D-02  8.6280047350852D-02
   198  1.9700000000000D+00  4.2761937485805D-02  8.9650754272109D-02
   199  1.9800000000000D+00  3.0423338078871D-02  9.2594364463117D-02
   200  1.9900000000000D+00  1.8667694766901D-02  9.5127878235929D-02
   201  2.0000000000000D+00  7.5020767880150D-03  9.7268760715126D-02
   202  2.0100000000000D+00 -3.0681579444099D-03  9.9034906659603D-02
   203  2.0200000000000D+00 -1.3039442254829D-02  1.0044447817121D-01
   204  2.0300000000000D+00 -2.2409933590763D-02  1.0151585831860D-01
   205  2.0400000000000D+00 -3.1179500776155D-02  1.0226755825834D-01
   206  2.0500000000000D+00 -3.9349693779290D-02  1.0271813678490D-01
   207  2.0600000000000D+00 -4.6923710912464D-02  1.0288612018029D-01
   208  2.0700000000000D+00 -5.3906363088149D-02  1.0278992299330D-01
   209  2.0800000000000D+00 -6.0304034257878D-02  1.0244777125398D-01
   210  2.0900000000000D+00 -6.6124638348710D-02  1.0187762765026D-01
   211  2.1000000000000D+00 -7.1377572311401D-02  1.0109711993863D-01
   212  2.1100000000000D+00 -7.6073665226609D-02  1.0012347272864D-01
   213  2.1200000000000D+00 -8.0225123344901D-02  9.8973443224374D-02
   214  2.1300000000000D+00 -8.3845471326752D-02  9.7663261139794D-02
   215  2.1400000000000D+00 -8.6949488592215D-02  9.6208574206148D-02
   216  2.1500000000000D+00 -8.9553142146627D-02  9.4624398277157D-02
   217  2.1600000000000D+00 -9.1673514604104D-02  9.2925073829516D-02
   218  2.1700000000000D+00 -9.3328727377365D-02  9.1124229323397D-02
   219  2.1800000000000D+00 -9.4537861192602D-02  8.9234749181350D-02
   220  2.1900000000000D+00 -9.5320869912874D-02  8.7268751771784D-02
   221  2.2000000000000D+00 -9.5698492055984D-02  8.5237572279165D-02
   222  2.2100000000000D+00 -9.5692158091026D-02  8.3151753300635D-02
   223  2.2200000000000D+00 -9.5323892374545D-02  8.1021045118559D-02
   224  2.2300000000000D+00 -9.4616214542344D-02  7.8854409570608D-02
   225  2.2400000000000D+00 -9.3592035312374D-02  7.6660034895571D-02
   226  2.2500000000000D+00 -9.2274550474994D-02  7.4445356757110D-02
   227  2.2600000000000D+00 -9.0687134853121D-02  7.2217083202355D-02
   228  2.2700000000000D+00 -8.8853231756855D-02  6.9981230876274D-02
   229  2.2800000000000D+00 -8.6796244358104D-02  6.7743163031036D-02
   230  2.2900000000000D+00 -8.4539426816974D-02  6.5507633401118D-02
   231  2.3000000000000D+00 -8.2105775619888D-02  6.3278836150006D-02
   232  2.3100000000000D+00 -7.9517923847771D-02  6.1060456679163D-02
   233  2.3200000000000D+00 -7.6798038114561D-02  5.8855726401931D-02
   234  2.3300000000000D+00 -7.3967719708398D-02  5.6667478602049D-02
   235  2.3400000000000D+00 -7.1047908807576D-02  5.4498205219280D-02
   236  2.3500000000000D+00 -6.8058797363099D-02  5.2350111763432D-02
   237  2.3600000000000D+00 -6.5019746847443D-02  5.0225171480403D-02
   238  2.3700000000000D+00 -6.1949211251453D-02  4.8125178871941D-02
   239  2.3800000000000D+00 -5.8864673717945D-02  4.6051795007433D-02
   240  2.3900000000000D+00 -5.5782586911090D-02  4.4006593053170D-02
   241  2.4000000000000D+00 -5.2718322743900D-02  4.1991098793428D-02
   242  2.4100000000000D+00 -4.9686137037441D-02  4.0006820284415D-02
   243  2.4200000000000D+00 -4.6699137107718D-02  3.8055278588683D-02
   244  2.4300000000000D+00 -4.3769262228480D-02  3.6138029148943D-02
   245  2.4400000000000D+00 -4.0907277329540D-02  3.4256673125851D-02
   246  2.4500000000000D+00 -3.8122769486489D-02  3.2412869852572D-02
   247  2.4600000000000D+00 -3.5424158363813D-02  3.0608337932759D-02
   248  2.4700000000000D+00 -3.2818716518017D-02  2.8844849280449D-02
   249  2.4800000000000D+00 -3.0312593106837D-02  2.7124223289563D-02
   250  2.4900000000000D+00 -2.7910849184665D-02  2.5448311448381D-02
   251  2.5000000000000D+00 -2.5617499361340D-02  2.3818978223867D-02
   252  2.5100000000000D+00 -2.3435557768921D-02  2.2238080549672D-02
   253  2.5200000000000D+00 -2.1367090418477D-02  2.0707442928008D-02
   254  2.5300000000000D+00 -1.9413271193656D-02  1.9228831341581D-02
   255  2.5400000000000D+00 -1.7574442690549D-02  1.7803924485649D-02
   256  2.5500000000000D+00 -1.5850177378852D-02  1.6434287020945D-02
   257  2.5600000000000D+00 -1.4239340379105D-02  1.5121343361276D-02
   258  2.5700000000000D+00 -1.2740156835567D-02  1.3866348317659D-02
   259  2.5800000000000D+00 -1.1350274900645D-02  1.2670364763005D-02
   260  2.5900000000000D+00 -1.0066828431224D-02  1.1534243399133D-02
   261  2.6000000000000D+00 -8.8865032409970D-03  1.0458599829342D-02
   262  2.6100000000000D+00 -7.8055969561766D-03  9.4438005082020D-03
   263  2.6200000000000D+00 -6.8200764159679D-03  8.4899526819807D-03
   264  2.6300000000000D+00 -5.9256371557710D-03  7.5968926414367D-03
   265  2.6400000000000D+00 -5.1177570387597D-03  6.7641815914403D-03
   266  2.6500000000000D+00 -4.3917452966319D-03  5.9911073944178D-03
   267  2.6600000000000D+00 -3.7427922027172D-03  5.2766856671790D-03
   268  2.6700000000000D+00 -3.1660146554789D-03  4.6196656881831D-03
   269  2.6800000000000D+00 -2.6564958822228D-03  4.0185430245735D-03
   270  2.6900000000000D+00 -2.2093246587815D-03  3.4715721952543D-03
   271  2.7000000000000D+00 -1.8196318298619D-03  2.9767818567201D-03
   272  2.7100000000000D+00 -1.4826212240658D-03  2.5319954887282D-03
   273  2.7200000000000D+00 -1.1935993667867D-03  2.1348523253720D-03
   274  2.7300000000000D+00 -9.4800261987446D-04  1.7828304074431D-03
   275  2.7400000000000D+00 -7.4142059541074D-04  1.4732715195258D-03
   276  2.7500000000000D+00 -5.6961773686912D-04  1.2034067941029D-03
   277  2.7600000000000D+00 -4.2855187122452D-04  9.7038453671124D-04
   278  2.7700000000000D+00 -3.1439108984293D-04  7.7129660968391D-04
   279  2.7800000000000D+00 -2.2352832168103D-04  6.0320530867107D-04
   280  2.7900000000000D+00 -1.5259326597471D-04  4.6317148039611D-04
   281  2.8000000000000D+00 -9.8462697980084D-05  3.4828121438511D-04
   282  2.8100000000000D+00 -5.8265835147063D-05  2.5567062665619D-04
   283  2.8200000000000D+00 -2.9385500757235D-05  1.8255110711254D-04
   284  2.8300000000000D+00 -9.5165108673561D-06  1.2623202989375D-04
   285  2.8400000000000D+00  3.4022428232123D-06  8.4144239702667D-05
   286  2.8500000000000D+00  1.1009870399387D-05  5.3822927958626D-05
   287  2.8600000000000D+00  1.5076673381007D-05  3.3053161229650D-05
   288  2.8700000000000D+00  1.7027401249429D-05  1.9778379101599D-05
   289  2.8800000000000D+00  1.8113274656852D-05  1.2199324611299D-05
   290  2.8900000000000D+00  1.8886922333053D-05  8.5864722557356D-06
   291  2.9000000000000D+00  1.8628279532480D-05  7.0742096043981D-06
   292  2.9100000000000D+00  1.6945993429539D-05  6.2921544996894D-06
   293  2.9200000000000D+00  1.2621222719766D-05  4.7827975548175D-06
   294  2.9300000000000D+00  7.3530592741366D-06  2.8956593622294D-06
   295  2.9400000000000D+00  2.3422273984896D-06  9.6204231723007D-07
   296  2.9500000000000D+00 -8.7810739911484D-07 -3.2322633737039D-07
   297  2.9600000000000D+00 -1.7221524017565D-06 -6.4079653143261D-07
   298  2.9700000000000D+00 -1.2457927463936D-06 -4.6876022485736D-07
   299  2.9800000000000D+00 -1.2872668380146D-07 -4.8970196745652D-08
   300  2.9900000000000D+00  3.1299109011606D-07  9.9514032001146D-08
   301  3.0000000000000D+00  3.8856474345914D-07  1.2270654141498D-07
   302  3.0100000000000D+00  2.0478871788201D-07  6.4293519665059D-08
   303  3.0200000000000D+00 -1.4856666415539D-08 -5.5286019123815D-09
   304  3.0300000000000D+00 -4.4718935240097D-08 -1.6641229194557D-08
   305  3.0400000000000D+00 -4.1529838074168D-08 -1.5454472475574D-08
   306  3.0500000000000D+00 -1.1732724853999D-08 -4.3660915074069D-09
   307  3.0600000000000D+00  0.0000000000000D+00  0.0000000000000D+00
   308  3.0700000000000D+00  0.0000000000000D+00  0.0000000000000D+00
   309  3.0800000000000D+00  0.0000000000000D+00  0.0000000000000D+00
   310  3.0900000000000D+00  0.0000000000000D+00  0.0000000000000D+00
   311  3.1000000000000D+00  0.0000000000000D+00  0.0000000000000D+00
   312  3.1100000000000D+00  0.0000000000000D+00  0.0000000000000D+00
   313  3.1200000000000D+00  0.0000000000000D+00  0.0000000000000D+00
   314  3.1300000000000D+00  0.0000000000000D+00  0.0000000000000D+00
   315  3.1400000000000D+00  0.0000000000000D+00  0.0000000000000D+00
   316  3.1500000000000D+00  0.0000000000000D+00  0.0000000000000D+00
   317  3.1600000000000D+00  0.0000000000000D+00  0.0000000000000D+00
   318  3.1700000000000D+00  0.0000000000000D+00  0.0000000000000D+00
   319  3.1800000000000D+00  0.0000000000000D+00  0.0000000000000D+00
   320  3.1900000000000D+00  0.0000000000000D+00  0.0000000000000D+00
   321  3.2000000000000D+00  0.0000000000000D+00  0.0000000000000D+00
   322  3.2100000000000D+00  0.0000000000000D+00  0.0000000000000D+00
   323  3.2200000000000D+00  0.0000000000000D+00  0.0000000000000D+00
   324  3.2300000000000D+00  0.0000000000000D+00  0.0000000000000D+00
   325  3.2400000000000D+00  0.0000000000000D+00  0.0000000000000D+00
   326  3.2500000000000D+00  0.0000000000000D+00  0.0000000000000D+00
   327  3.2600000000000D+00  0.0000000000000D+00  0.0000000000000D+00
   328  3.2700000000000D+00  0.0000000000000D+00  0.0000000000000D+00
   329  3.2800000000000D+00  0.0000000000000D+00  0.0000000000000D+00
   330  3.2900000000000D+00  0.0000000000000D+00  0.0000000000000D+00
   331  3.3000000000000D+00  0.0000000000000D+00  0.0000000000000D+00
   332  3.3100000000000D+00  0.0000000000000D+00  0.0000000000000D+00
   333  3.3200000000000D+00  0.0000000000000D+00  0.0000000000000D+00
   334  3.3300000000000D+00  0.0000000000000D+00  0.0000000000000D+00
   335  3.3400000000000D+00  0.0000000000000D+00  0.0000000000000D+00
   336  3.3500000000000D+00  0.0000000000000D+00  0.0000000000000D+00
   337  3.3600000000000D+00  0.0000000000000D+00  0.0000000000000D+00
   338  3.3700000000000D+00  0.0000000000000D+00  0.0000000000000D+00
   339  3.3800000000000D+00  0.0000000000000D+00  0.0000000000000D+00
   340  3.3900000000000D+00  0.0000000000000D+00  0.0000000000000D+00
   341  3.4000000000000D+00  0.0000000000000D+00  0.0000000000000D+00
   342  3.4100000000000D+00  0.0000000000000D+00  0.0000000000000D+00
   343  3.4200000000000D+00  0.0000000000000D+00  0.0000000000000D+00
   344  3.4300000000000D+00  0.0000000000000D+00  0.0000000000000D+00
   345  3.4400000000000D+00  0.0000000000000D+00  0.0000000000000D+00
   346  3.4500000000000D+00  0.0000000000000D+00  0.0000000000000D+00
   347  3.4600000000000D+00  0.0000000000000D+00  0.0000000000000D+00
   348  3.4700000000000D+00  0.0000000000000D+00  0.0000000000000D+00
   349  3.4800000000000D+00  0.0000000000000D+00  0.0000000000000D+00
   350  3.4900000000000D+00  0.0000000000000D+00  0.0000000000000D+00
   351  3.5000000000000D+00  0.0000000000000D+00  0.0000000000000D+00
   352  3.5100000000000D+00  0.0000000000000D+00  0.0000000000000D+00
   353  3.5200000000000D+00  0.0000000000000D+00  0.0000000000000D+00
   354  3.5300000000000D+00  0.0000000000000D+00  0.0000000000000D+00
   355  3.5400000000000D+00  0.0000000000000D+00  0.0000000000000D+00
   356  3.5500000000000D+00  0.0000000000000D+00  0.0000000000000D+00
   357  3.5600000000000D+00  0.0000000000000D+00  0.0000000000000D+00
   358  3.5700000000000D+00  0.0000000000000D+00  0.0000000000000D+00
   359  3.5800000000000D+00  0.0000000000000D+00  0.0000000000000D+00
   360  3.5900000000000D+00  0.0000000000000D+00  0.0000000000000D+00
   361  3.6000000000000D+00  0.0000000000000D+00  0.0000000000000D+00
   362  3.6100000000000D+00  0.0000000000000D+00  0.0000000000000D+00
   363  3.6200000000000D+00  0.0000000000000D+00  0.0000000000000D+00
   364  3.6300000000000D+00  0.0000000000000D+00  0.0000000000000D+00
   365  3.6400000000000D+00  0.0000000000000D+00  0.0000000000000D+00
   366  3.6500000000000D+00  0.0000000000000D+00  0.0000000000000D+00
   367  3.6600000000000D+00  0.0000000000000D+00  0.0000000000000D+00
   368  3.6700000000000D+00  0.0000000000000D+00  0.0000000000000D+00
   369  3.6800000000000D+00  0.0000000000000D+00  0.0000000000000D+00
   370  3.6900000000000D+00  0.0000000000000D+00  0.0000000000000D+00
   371  3.7000000000000D+00  0.0000000000000D+00  0.0000000000000D+00
   372  3.7100000000000D+00  0.0000000000000D+00  0.0000000000000D+00
   373  3.7200000000000D+00  0.0000000000000D+00  0.0000000000000D+00
   374  3.7300000000000D+00  0.0000000000000D+00  0.0000000000000D+00
   375  3.7400000000000D+00  0.0000000000000D+00  0.0000000000000D+00
   376  3.7500000000000D+00  0.0000000000000D+00  0.0000000000000D+00
   377  3.7600000000000D+00  0.0000000000000D+00  0.0000000000000D+00
   378  3.7700000000000D+00  0.0000000000000D+00  0.0000000000000D+00
   379  3.7800000000000D+00  0.0000000000000D+00  0.0000000000000D+00
   380  3.7900000000000D+00  0.0000000000000D+00  0.0000000000000D+00
   381  3.8000000000000D+00  0.0000000000000D+00  0.0000000000000D+00
   382  3.8100000000000D+00  0.0000000000000D+00  0.0000000000000D+00
   383  3.8200000000000D+00  0.0000000000000D+00  0.0000000000000D+00
   384  3.8300000000000D+00  0.0000000000000D+00  0.0000000000000D+00
   385  3.8400000000000D+00  0.0000000000000D+00  0.0000000000000D+00
   386  3.8500000000000D+00  0.0000000000000D+00  0.0000000000000D+00
   387  3.8600000000000D+00  0.0000000000000D+00  0.0000000000000D+00
   388  3.8700000000000D+00  0.0000000000000D+00  0.0000000000000D+00
   389  3.8800000000000D+00  0.0000000000000D+00  0.0000000000000D+00
   390  3.8900000000000D+00  0.0000000000000D+00  0.0000000000000D+00
   391  3.9000000000000D+00  0.0000000000000D+00  0.0000000000000D+00
   392  3.9100000000000D+00  0.0000000000000D+00  0.0000000000000D+00
   393  3.9200000000000D+00  0.0000000000000D+00  0.0000000000000D+00
   394  3.9300000000000D+00  0.0000000000000D+00  0.0000000000000D+00
   395  3.9400000000000D+00  0.0000000000000D+00  0.0000000000000D+00
   396  3.9500000000000D+00  0.0000000000000D+00  0.0000000000000D+00
   397  3.9600000000000D+00  0.0000000000000D+00  0.0000000000000D+00
   398  3.9700000000000D+00  0.0000000000000D+00  0.0000000000000D+00
   399  3.9800000000000D+00  0.0000000000000D+00  0.0000000000000D+00
   400  3.9900000000000D+00  0.0000000000000D+00  0.0000000000000D+00
   401  4.0000000000000D+00  0.0000000000000D+00  0.0000000000000D+00
   402  4.0100000000000D+00  0.0000000000000D+00  0.0000000000000D+00
   403  4.0200000000000D+00  0.0000000000000D+00  0.0000000000000D+00
   404  4.0300000000000D+00  0.0000000000000D+00  0.0000000000000D+00
   405  4.0400000000000D+00  0.0000000000000D+00  0.0000000000000D+00
   406  4.0500000000000D+00  0.0000000000000D+00  0.0000000000000D+00
   407  4.0600000000000D+00  0.0000000000000D+00  0.0000000000000D+00
   408  4.0700000000000D+00  0.0000000000000D+00  0.0000000000000D+00
   409  4.0800000000000D+00  0.0000000000000D+00  0.0000000000000D+00
   410  4.0900000000000D+00  0.0000000000000D+00  0.0000000000000D+00
   411  4.1000000000000D+00  0.0000000000000D+00  0.0000000000000D+00
   412  4.1100000000000D+00  0.0000000000000D+00  0.0000000000000D+00
   413  4.1200000000000D+00  0.0000000000000D+00  0.0000000000000D+00
   414  4.1300000000000D+00  0.0000000000000D+00  0.0000000000000D+00
   415  4.1400000000000D+00  0.0000000000000D+00  0.0000000000000D+00
   416  4.1500000000000D+00  0.0000000000000D+00  0.0000000000000D+00
   417  4.1600000000000D+00  0.0000000000000D+00  0.0000000000000D+00
   418  4.1700000000000D+00  0.0000000000000D+00  0.0000000000000D+00
   419  4.1800000000000D+00  0.0000000000000D+00  0.0000000000000D+00
   420  4.1900000000000D+00  0.0000000000000D+00  0.0000000000000D+00
   421  4.2000000000000D+00  0.0000000000000D+00  0.0000000000000D+00
   422  4.2100000000000D+00  0.0000000000000D+00  0.0000000000000D+00