Se    ONCVPSP-3.3.1  r_core=   2.63348   2.72943   3.38315
     34.0000      6.0000      210904    zatom,zion,pspd
     8      11   2     4   600     0    pspcod,pspxc,lmax,lloc,mmax,r2well
  5.99000000  0.00000000  0.00000000    rchrg fchrg qchrg
     2     2     2     0     0    nproj
     1     1           extension_switch
   0                         6.1698634158696D+00  3.7234540404563D-01
     1  0.0000000000000D+00  5.8650306833385D-12 -1.3272744014969D-11
     2  1.0000000000000D-02  3.1303710178224D-02 -1.5906165307765D-02
     3  2.0000000000000D-02  6.2597155280620D-02 -3.1804130894294D-02
     4  3.0000000000000D-02  9.3870018310552D-02 -4.7685593428506D-02
     5  4.0000000000000D-02  1.2511187875068D-01 -6.3542043052358D-02
     6  5.0000000000000D-02  1.5631216160341D-01 -7.9364661845757D-02
     7  6.0000000000000D-02  1.8746008738816D-01 -9.5144224356091D-02
     8  7.0000000000000D-02  2.1854462340739D-01 -1.1087100086472D-01
     9  8.0000000000000D-02  2.4955443658764D-01 -1.2653466404948D-01
    10  9.0000000000000D-02  2.8047784819421D-01 -1.4212419968549D-01
    11  1.0000000000000D-01  3.1130279070972D-01 -1.5762782200658D-01
    12  1.1000000000000D-01  3.4201676715653D-01 -1.7303289432710D-01
    13  1.2000000000000D-01  3.7260681313161D-01 -1.8832585549740D-01
    14  1.3000000000000D-01  4.0305946181005D-01 -2.0349215273801D-01
    15  1.4000000000000D-01  4.3336071215918D-01 -2.1851618136582D-01
    16  1.5000000000000D-01  4.6349600059077D-01 -2.3338123189120D-01
    17  1.6000000000000D-01  4.9345017626229D-01 -2.4806944492909D-01
    18  1.7000000000000D-01  5.2320748022143D-01 -2.6256177432755D-01
    19  1.8000000000000D-01  5.5275152857002D-01 -2.7683795887684D-01
    20  1.9000000000000D-01  5.8206529980461D-01 -2.9087650291904D-01
    21  2.0000000000000D-01  6.1113112647148D-01 -3.0465466613368D-01
    22  2.1000000000000D-01  6.3993069125341D-01 -3.1814846272875D-01
    23  2.2000000000000D-01  6.6844502758483D-01 -3.3133267021907D-01
    24  2.3000000000000D-01  6.9665452487060D-01 -3.4418084792550D-01
    25  2.4000000000000D-01  7.2453893836159D-01 -3.5666536527892D-01
    26  2.5000000000000D-01  7.5207740371875D-01 -3.6875743996304D-01
    27  2.6000000000000D-01  7.7924845627436D-01 -3.8042718587941D-01
    28  2.7000000000000D-01  8.0603005497737D-01 -3.9164367086736D-01
    29  2.8000000000000D-01  8.3239961098688D-01 -4.0237498406091D-01
    30  2.9000000000000D-01  8.5833402085577D-01 -4.1258831271415D-01
    31  3.0000000000000D-01  8.8380970422412D-01 -4.2225002827667D-01
    32  3.1000000000000D-01  9.0880264592036D-01 -4.3132578145119D-01
    33  3.2000000000000D-01  9.3328844234657D-01 -4.3978060591765D-01
    34  3.3000000000000D-01  9.5724235200319D-01 -4.4757903035996D-01
    35  3.4000000000000D-01  9.8063934998820D-01 -4.5468519838672D-01
    36  3.5000000000000D-01  1.0034541862857D+00 -4.6106299589218D-01
    37  3.6000000000000D-01  1.0256614476403D+00 -4.6667618536174D-01
    38  3.7000000000000D-01  1.0472356227945D+00 -4.7148854658526D-01
    39  3.8000000000000D-01  1.0681511708506D+00 -4.7546402320375D-01
    40  3.9000000000000D-01  1.0883825925002D+00 -4.7856687447823D-01
    41  4.0000000000000D-01  1.1079045038507D+00 -4.8076183163649D-01
    42  4.1000000000000D-01  1.1266917125639D+00 -4.8201425812275D-01
    43  4.2000000000000D-01  1.1447192960078D+00 -4.8229031304654D-01
    44  4.3000000000000D-01  1.1619626811114D+00 -4.8155711710290D-01
    45  4.4000000000000D-01  1.1783977256032D+00 -4.7978292021309D-01
    46  4.5000000000000D-01  1.1940008003027D+00 -4.7693727011706D-01
    47  4.6000000000000D-01  1.2087488721281D+00 -4.7299118113236D-01
    48  4.7000000000000D-01  1.2226195874764D+00 -4.6791730228329D-01
    49  4.8000000000000D-01  1.2355913556279D+00 -4.6169008399377D-01
    50  4.9000000000000D-01  1.2476434318225D+00 -4.5428594253367D-01
    51  5.0000000000000D-01  1.2587559996552D+00 -4.4568342140554D-01
    52  5.1000000000000D-01  1.2689102524350D+00 -4.3586334886088D-01
    53  5.2000000000000D-01  1.2780884731553D+00 -4.2480899074085D-01
    54  5.3000000000000D-01  1.2862741127257D+00 -4.1250619784425D-01
    55  5.4000000000000D-01  1.2934518661162D+00 -3.9894354703950D-01
    56  5.5000000000000D-01  1.2996077460766D+00 -3.8411247535211D-01
    57  5.6000000000000D-01  1.3047291540933D+00 -3.6800740627942D-01
    58  5.7000000000000D-01  1.3088049482607D+00 -3.5062586760682D-01
    59  5.8000000000000D-01  1.3118255077501D+00 -3.3196860002631D-01
    60  5.9000000000000D-01  1.3137827935711D+00 -3.1203965588725D-01
    61  6.0000000000000D-01  1.3146704053344D+00 -2.9084648744211D-01
    62  6.1000000000000D-01  1.3144836337363D+00 -2.6840002398559D-01
    63  6.2000000000000D-01  1.3132195085011D+00 -2.4471473732401D-01
    64  6.3000000000000D-01  1.3108768415355D+00 -2.1980869505285D-01
    65  6.4000000000000D-01  1.3074562650612D+00 -1.9370360116492D-01
    66  6.5000000000000D-01  1.3029602645163D+00 -1.6642482355745D-01
    67  6.6000000000000D-01  1.2973932060297D+00 -1.3800140805510D-01
    68  6.7000000000000D-01  1.2907613582966D+00 -1.0846607861674D-01
    69  6.8000000000000D-01  1.2830729087002D+00 -7.7855223446891D-02
    70  6.9000000000000D-01  1.2743379735496D+00 -4.6208866786295D-02
    71  7.0000000000000D-01  1.2645686023238D+00 -1.3570626212871D-02
    72  7.1000000000000D-01  1.2537787758332D+00  2.0012344659008D-02
    73  7.2000000000000D-01  1.2419843982365D+00  5.4489428134014D-02
    74  7.3000000000000D-01  1.2292032828699D+00  8.9806629040939D-02
    75  7.4000000000000D-01  1.2154551318723D+00  1.2590667592076D-01
    76  7.5000000000000D-01  1.2007615096118D+00  1.6272913667211D-01
    77  7.6000000000000D-01  1.1851458099434D+00  2.0021054846687D-01
    78  7.7000000000000D-01  1.1686332173513D+00  2.3828456168832D-01
    79  7.8000000000000D-01  1.1512506620533D+00  2.7688209758390D-01
    80  7.9000000000000D-01  1.1330267691667D+00  3.1593151926389D-01
    81  8.0000000000000D-01  1.1139918020596D+00  3.5535881561893D-01
    82  8.1000000000000D-01  1.0941776000342D+00  3.9508779766922D-01
    83  8.2000000000000D-01  1.0736175105086D+00  4.3504030680234D-01
    84  8.3000000000000D-01  1.0523463158896D+00  4.7513643429863D-01
    85  8.4000000000000D-01  1.0304001553450D+00  5.1529475148927D-01
    86  8.5000000000000D-01  1.0078164417075D+00  5.5543254983884D-01
    87  8.6000000000000D-01  9.8463377376186D-01  5.9546609019183D-01
    88  8.7000000000000D-01  9.6089184418255D-01  6.3531086037478D-01
    89  8.8000000000000D-01  9.3663134341099D-01  6.7488184029655D-01
    90  8.9000000000000D-01  9.1189385977505D-01  7.1409377364575D-01
    91  9.0000000000000D-01  8.8672177617059D-01  7.5286144524128D-01
    92  9.1000000000000D-01  8.6115816363915D-01  7.9109996305232D-01
    93  9.2000000000000D-01  8.3524667218953D-01  8.2872504386634D-01
    94  9.3000000000000D-01  8.0903141922262D-01  8.6565330155089D-01
    95  9.4000000000000D-01  7.8255687593091D-01  9.0180253682181D-01
    96  9.5000000000000D-01  7.5586775205291D-01  9.3709202740390D-01
    97  9.6000000000000D-01  7.2900887937187D-01  9.7144281744399D-01
    98  9.7000000000000D-01  7.0202509435497D-01  1.0047780050150D+00
    99  9.8000000000000D-01  6.7496112033535D-01  1.0370230265304D+00
   100  9.9000000000000D-01  6.4786144964362D-01  1.0681059368746D+00
   101  1.0000000000000D+00  6.2077022609867D-01  1.0979576840404D+00
   102  1.0100000000000D+00  5.9373112826971D-01  1.1265123770585D+00
   103  1.0200000000000D+00  5.6678725392164D-01  1.1537075459980D+00
   104  1.0300000000000D+00  5.3998100605523D-01  1.1794843928143D+00
   105  1.0400000000000D+00  5.1335398095134D-01  1.2037880318226D+00
   106  1.0500000000000D+00  4.8694685862509D-01  1.2265677185818D+00
   107  1.0600000000000D+00  4.6079929609097D-01  1.2477770659780D+00
   108  1.0700000000000D+00  4.3494982383408D-01  1.2673742463133D+00
   109  1.0800000000000D+00  4.0943574587578D-01  1.2853221782139D+00
   110  1.0900000000000D+00  3.8429304381310D-01  1.3015886971952D+00
   111  1.1000000000000D+00  3.5955628520263D-01  1.3161467087377D+00
   112  1.1100000000000D+00  3.3525853664768D-01  1.3289743227546D+00
   113  1.1200000000000D+00  3.1143128193828D-01  1.3400549683545D+00
   114  1.1300000000000D+00  2.8810434557896D-01  1.3493774878347D+00
   115  1.1400000000000D+00  2.6530582202677D-01  1.3569362088713D+00
   116  1.1500000000000D+00  2.4306201094651D-01  1.3627309939080D+00
   117  1.1600000000000D+00  2.2139735877821D-01  1.3667672657772D+00
   118  1.1700000000000D+00  2.0033440689251D-01  1.3690560086295D+00
   119  1.1800000000000D+00  1.7989374659524D-01  1.3696137432894D+00
   120  1.1900000000000D+00  1.6009398122228D-01  1.3684624761987D+00
   121  1.2000000000000D+00  1.4095169555629D-01  1.3656296211395D+00
   122  1.2100000000000D+00  1.2248143276853D-01  1.3611478929954D+00
   123  1.2200000000000D+00  1.0469567907520D-01  1.3550551728492D+00
   124  1.2300000000000D+00  8.7604856282683D-02  1.3473943437514D+00
   125  1.2400000000000D+00  7.1217322372322D-02  1.3382130965573D+00
   126  1.2500000000000D+00  5.5539380254552D-02  1.3275637052861D+00
   127  1.2600000000000D+00  4.0575294808716D-02  1.3155027714902D+00
   128  1.2700000000000D+00  2.6327318305525D-02  1.3020909371758D+00
   129  1.2800000000000D+00  1.2795724280217D-02  1.2873925658944D+00
   130  1.2900000000000D+00 -2.1150083143909D-05  1.2714753916468D+00
   131  1.3000000000000D+00 -1.2126853015279D-02  1.2544101352940D+00
   132  1.3100000000000D+00 -2.3526758665223D-02  1.2362700882639D+00
   133  1.3200000000000D+00 -3.4227999035061D-02  1.2171306633398D+00
   134  1.3300000000000D+00 -4.4239387362978D-02  1.1970689123911D+00
   135  1.3400000000000D+00 -5.3571333002228D-02  1.1761630109986D+00
   136  1.3500000000000D+00 -6.2235747832768D-02  1.1544917098909D+00
   137  1.3600000000000D+00 -7.0245944283407D-02  1.1321337532356D+00
   138  1.3700000000000D+00 -7.7616525057863D-02  1.1091672638767D+00
   139  1.3800000000000D+00 -8.4363264643260D-02  1.0856690955621D+00
   140  1.3900000000000D+00 -9.0502982741848D-02  1.0617141524037D+00
   141  1.4000000000000D+00 -9.6053409741357D-02  1.0373746757343D+00
   142  1.4100000000000D+00 -1.0103304436483D-01  1.0127194986031D+00
   143  1.4200000000000D+00 -1.0546100334955D-01  9.8781326238307D-01
   144  1.4300000000000D+00 -1.0935686521943D-01  9.6271563063942D-01
   145  1.4400000000000D+00 -1.1274049975409D-01  9.3748035639491D-01
   146  1.4500000000000D+00 -1.1563191651550D-01  9.1215472450154D-01
   147  1.4600000000000D+00 -1.1805106473997D-01  8.8677837740526D-01
   148  1.4700000000000D+00 -1.2001759303922D-01  8.6138125297494D-01
   149  1.4800000000000D+00 -1.2155088338891D-01  8.3598689106600D-01
   150  1.4900000000000D+00 -1.2267008987806D-01  8.1061533406515D-01
   151  1.5000000000000D+00 -1.2339431250637D-01  7.8528684308620D-01
   152  1.5100000000000D+00 -1.2374267011540D-01  7.6002373689333D-01
   153  1.5200000000000D+00 -1.2373421938576D-01  7.3484893355772D-01
   154  1.5300000000000D+00 -1.2338794035049D-01  7.0978595890487D-01
   155  1.5400000000000D+00 -1.2272270855121D-01  6.8485878892836D-01
   156  1.5500000000000D+00 -1.2175726548625D-01  6.6009165332953D-01
   157  1.5600000000000D+00 -1.2051018777842D-01  6.3550885541543D-01
   158  1.5700000000000D+00 -1.1899985595553D-01  6.1113460396381D-01
   159  1.5800000000000D+00 -1.1724442319664D-01  5.8699286031393D-01
   160  1.5900000000000D+00 -1.1526178473270D-01  5.6310720207244D-01
   161  1.6000000000000D+00 -1.1306954788962D-01  5.3950070045618D-01
   162  1.6100000000000D+00 -1.1068500331817D-01  5.1619581266557D-01
   163  1.6200000000000D+00 -1.0812509743807D-01  4.9321428733861D-01
   164  1.6300000000000D+00 -1.0540640639708D-01  4.7057708300102D-01
   165  1.6400000000000D+00 -1.0254511160173D-01  4.4830429805135D-01
   166  1.6500000000000D+00 -9.9556976947179D-02  4.2641511166340D-01
   167  1.6600000000000D+00 -9.6457327806997D-02  4.0492773432106D-01
   168  1.6700000000000D+00 -9.3261031806077D-02  3.8385936733534D-01
   169  1.6800000000000D+00 -8.9982481421877D-02  3.6322617014434D-01
   170  1.6900000000000D+00 -8.6635578385547D-02  3.4304323489979D-01
   171  1.7000000000000D+00 -8.3233719899796D-02  3.2332456722445D-01
   172  1.7100000000000D+00 -7.9789786625836D-02  3.0408307280264D-01
   173  1.7200000000000D+00 -7.6316132429036D-02  2.8533054886173D-01
   174  1.7300000000000D+00 -7.2824575831701D-02  2.6707768028593D-01
   175  1.7400000000000D+00 -6.9326393138859D-02  2.4933403963829D-01
   176  1.7500000000000D+00 -6.5832313187355D-02  2.3210809083428D-01
   177  1.7600000000000D+00 -6.2352513669080D-02  2.1540719600720D-01
   178  1.7700000000000D+00 -5.8896618980191D-02  1.9923762524912D-01
   179  1.7800000000000D+00 -5.5473699538009D-02  1.8360456901713D-01
   180  1.7900000000000D+00 -5.2092272518411D-02  1.6851215281677D-01
   181  1.8000000000000D+00 -4.8760303950062D-02  1.5396345415386D-01
   182  1.8100000000000D+00 -4.5485212117953D-02  1.3996052130630D-01
   183  1.8200000000000D+00 -4.2273872210506D-02  1.2650439405194D-01
   184  1.8300000000000D+00 -3.9132622162770D-02  1.1359512588848D-01
   185  1.8400000000000D+00 -3.6067269627840D-02  1.0123180793900D-01
   186  1.8500000000000D+00 -3.3083100027349D-02  8.9412594110135D-02
   187  1.8600000000000D+00 -3.0184885614855D-02  7.8134727671010D-02
   188  1.8700000000000D+00 -2.7376895499382D-02  6.7394568943708D-02
   189  1.8800000000000D+00 -2.4662906566920D-02  5.7187624154843D-02
   190  1.8900000000000D+00 -2.2046215240986D-02  4.7508575273912D-02
   191  1.9000000000000D+00 -1.9529650024707D-02  3.8351310791432D-02
   192  1.9100000000000D+00 -1.7115584763905D-02  2.9708957353835D-02
   193  1.9200000000000D+00 -1.4805952571713D-02  2.1573912155552D-02
   194  1.9300000000000D+00 -1.2602260361454D-02  1.3937876042579D-02
   195  1.9400000000000D+00 -1.0505603917273D-02  6.7918872146652D-03
   196  1.9500000000000D+00 -8.5166834652366D-03  1.2635548949867D-04
   197  1.9600000000000D+00 -6.6358196607664D-03 -6.0689029861770D-03
   198  1.9700000000000D+00 -4.8629699637740D-03 -1.1804630618271D-02
   199  1.9800000000000D+00 -3.1977453252440D-03 -1.7092092933067D-02
   200  1.9900000000000D+00 -1.6394271372661D-03 -2.1943042897019D-02
   201  2.0000000000000D+00 -1.8698440761884D-04 -2.6369685046353D-02
   202  2.0100000000000D+00  1.1609089324788D-03 -3.0384639535435D-02
   203  2.0200000000000D+00  2.4058565777886D-03 -3.4000906111237D-02
   204  2.0300000000000D+00  3.5497223743280D-03 -3.7231828150362D-02
   205  2.0400000000000D+00  4.5946128088339D-03 -4.0091056762991D-02
   206  2.0500000000000D+00  5.5428595373086D-03 -4.2592515059128D-02
   207  2.0600000000000D+00  6.3970020152763D-03 -4.4750362659961D-02
   208  2.0700000000000D+00  7.1597701991548D-03 -4.6578960428017D-02
   209  2.0800000000000D+00  7.8340674739625D-03 -4.8092835610019D-02
   210  2.0900000000000D+00  8.4229537260079D-03 -4.9306647303232D-02
   211  2.1000000000000D+00  8.9296286775534D-03 -5.0235152395527D-02
   212  2.1100000000000D+00  9.3574155066702D-03 -5.0893172016142D-02
   213  2.1200000000000D+00  9.7097447133509D-03 -5.1295558450395D-02
   214  2.1300000000000D+00  9.9901383948119D-03 -5.1457162730129D-02
   215  2.1400000000000D+00  1.0202194821258D-02 -5.1392802825828D-02
   216  2.1500000000000D+00  1.0349573415127D-02 -5.1117232459600D-02
   217  2.1600000000000D+00  1.0435980178983D-02 -5.0645110778016D-02
   218  2.1700000000000D+00  1.0465153360116D-02 -4.9990971808888D-02
   219  2.1800000000000D+00  1.0440849852468D-02 -4.9169196216865D-02
   220  2.1900000000000D+00  1.0366832011143D-02 -4.8193983899747D-02
   221  2.2000000000000D+00  1.0246854882801D-02 -4.7079326880969D-02
   222  2.2100000000000D+00  1.0084653773862D-02 -4.5838981689927D-02
   223  2.2200000000000D+00  9.8839318178711D-03 -4.4486439452490D-02
   224  2.2300000000000D+00  9.6483491680126D-03 -4.3034904512456D-02
   225  2.2400000000000D+00  9.3815123629533D-03 -4.1497271653451D-02
   226  2.2500000000000D+00  9.0869646755799D-03 -3.9886107832465D-02
   227  2.2600000000000D+00  8.7681756202144D-03 -3.8213624542637D-02
   228  2.2700000000000D+00  8.4285314035828D-03 -3.6491654599929D-02
   229  2.2800000000000D+00  8.0713260714826D-03 -3.4731631020973D-02
   230  2.2900000000000D+00  7.6997535997408D-03 -3.2944569781734D-02
   231  2.3000000000000D+00  7.3169003578038D-03 -3.1141052923706D-02
   232  2.3100000000000D+00  6.9257376969128D-03 -2.9331209537766D-02
   233  2.3200000000000D+00  6.5291151620683D-03 -2.7524698712053D-02
   234  2.3300000000000D+00  6.1297540647026D-03 -2.5730692790616D-02
   235  2.3400000000000D+00  5.7302417670804D-03 -2.3957862882134D-02
   236  2.3500000000000D+00  5.3330262604289D-03 -2.2214364351329D-02
   237  2.3600000000000D+00  4.9404112024201D-03 -2.0507823326596D-02
   238  2.3700000000000D+00  4.5545514016985D-03 -1.8845323996906D-02
   239  2.3800000000000D+00  4.1774486844569D-03 -1.7233396725929D-02
   240  2.3900000000000D+00  3.8109481591509D-03 -1.5678006945490D-02
   241  2.4000000000000D+00  3.4567348656041D-03 -1.4184544818780D-02
   242  2.4100000000000D+00  3.1163307665905D-03 -1.2757815637354D-02
   243  2.4200000000000D+00  2.7910920887038D-03 -1.1402030964581D-02
   244  2.4300000000000D+00  2.4822069861253D-03 -1.0120800492636D-02
   245  2.4400000000000D+00  2.1906935116301D-03 -8.9171245892819D-03
   246  2.4500000000000D+00  1.9173978705285D-03 -7.7933875179318D-03
   247  2.4600000000000D+00  1.6629929436500D-03 -6.7513513106824D-03
   248  2.4700000000000D+00  1.4279770840341D-03 -5.7921503002870D-03
   249  2.4800000000000D+00  1.2126731214917D-03 -4.9162862390919D-03
   250  2.4900000000000D+00  1.0172275932548D-03 -4.1236240255006D-03
   251  2.5000000000000D+00  8.4161021499382D-04 -3.4133880525195D-03
   252  2.5100000000000D+00  6.8561348438569D-04 -2.7841590627171D-03
   253  2.5200000000000D+00  5.4885247658406D-04 -2.2338715722406D-03
   254  2.5300000000000D+00  4.3076485027843D-04 -1.7598118870986D-03
   255  2.5400000000000D+00  3.3061091579493D-04 -1.3586165448799D-03
   256  2.5500000000000D+00  2.4749348211561D-04 -1.0264200558916D-03
   257  2.5600000000000D+00  1.8028492884681D-04 -7.5829816770285D-04
   258  2.5700000000000D+00  1.2770467413248D-04 -5.4885210754639D-04
   259  2.5800000000000D+00  8.8012891196291D-05 -3.9049617739031D-04
   260  2.5900000000000D+00  6.0121330958860D-05 -2.7963687521498D-04
   261  2.6000000000000D+00  4.2479881072827D-05 -2.1044625768592D-04
   262  2.6100000000000D+00  3.4063612436398D-05 -1.7998406326258D-04
   263  2.6200000000000D+00  3.0641424901845D-05 -1.6841040421708D-04
   264  2.6300000000000D+00  2.8116289973275D-05 -1.5647407083059D-04
   265  2.6400000000000D+00  2.2003172175811D-05 -1.2263776428613D-04
   266  2.6500000000000D+00  1.2947867426581D-05 -7.2065027269000D-05
   267  2.6600000000000D+00  3.8537666652691D-06 -2.1384974543335D-05
   268  2.6700000000000D+00 -1.7064014265880D-06  9.5845117987452D-06
   269  2.6800000000000D+00 -2.7580444526179D-06  1.5492414453579D-05
   270  2.6900000000000D+00 -1.4815325119351D-06  8.3205085645761D-06
   271  2.7000000000000D+00  2.1007542477838D-07 -1.1891815917281D-06
   272  2.7100000000000D+00  5.9637717159779D-07 -3.3788202237191D-06
   273  2.7200000000000D+00  4.4541677989645D-07 -2.5253574729730D-06
   274  2.7300000000000D+00 -5.0061351429118D-09  2.7868751609665D-08
   275  2.7400000000000D+00 -6.8014690204755D-08  3.7863230875986D-07
   276  2.7500000000000D+00 -6.7863245647774D-08  3.7778922909449D-07
   277  2.7600000000000D+00 -1.4909835072494D-08  8.3001852390008D-08
   278  2.7700000000000D+00  0.0000000000000D+00  0.0000000000000D+00
   279  2.7800000000000D+00  0.0000000000000D+00  0.0000000000000D+00
   280  2.7900000000000D+00  0.0000000000000D+00  0.0000000000000D+00
   281  2.8000000000000D+00  0.0000000000000D+00  0.0000000000000D+00
   282  2.8100000000000D+00  0.0000000000000D+00  0.0000000000000D+00
   283  2.8200000000000D+00  0.0000000000000D+00  0.0000000000000D+00
   284  2.8300000000000D+00  0.0000000000000D+00  0.0000000000000D+00
   285  2.8400000000000D+00  0.0000000000000D+00  0.0000000000000D+00
   286  2.8500000000000D+00  0.0000000000000D+00  0.0000000000000D+00
   287  2.8600000000000D+00  0.0000000000000D+00  0.0000000000000D+00
   288  2.8700000000000D+00  0.0000000000000D+00  0.0000000000000D+00
   289  2.8800000000000D+00  0.0000000000000D+00  0.0000000000000D+00
   290  2.8900000000000D+00  0.0000000000000D+00  0.0000000000000D+00
   291  2.9000000000000D+00  0.0000000000000D+00  0.0000000000000D+00
   292  2.9100000000000D+00  0.0000000000000D+00  0.0000000000000D+00
   293  2.9200000000000D+00  0.0000000000000D+00  0.0000000000000D+00
   294  2.9300000000000D+00  0.0000000000000D+00  0.0000000000000D+00
   295  2.9400000000000D+00  0.0000000000000D+00  0.0000000000000D+00
   296  2.9500000000000D+00  0.0000000000000D+00  0.0000000000000D+00
   297  2.9600000000000D+00  0.0000000000000D+00  0.0000000000000D+00
   298  2.9700000000000D+00  0.0000000000000D+00  0.0000000000000D+00
   299  2.9800000000000D+00  0.0000000000000D+00  0.0000000000000D+00
   300  2.9900000000000D+00  0.0000000000000D+00  0.0000000000000D+00
   301  3.0000000000000D+00  0.0000000000000D+00  0.0000000000000D+00
   302  3.0100000000000D+00  0.0000000000000D+00  0.0000000000000D+00
   303  3.0200000000000D+00  0.0000000000000D+00  0.0000000000000D+00
   304  3.0300000000000D+00  0.0000000000000D+00  0.0000000000000D+00
   305  3.0400000000000D+00  0.0000000000000D+00  0.0000000000000D+00
   306  3.0500000000000D+00  0.0000000000000D+00  0.0000000000000D+00
   307  3.0600000000000D+00  0.0000000000000D+00  0.0000000000000D+00
   308  3.0700000000000D+00  0.0000000000000D+00  0.0000000000000D+00
   309  3.0800000000000D+00  0.0000000000000D+00  0.0000000000000D+00
   310  3.0900000000000D+00  0.0000000000000D+00  0.0000000000000D+00
   311  3.1000000000000D+00  0.0000000000000D+00  0.0000000000000D+00
   312  3.1100000000000D+00  0.0000000000000D+00  0.0000000000000D+00
   313  3.1200000000000D+00  0.0000000000000D+00  0.0000000000000D+00
   314  3.1300000000000D+00  0.0000000000000D+00  0.0000000000000D+00
   315  3.1400000000000D+00  0.0000000000000D+00  0.0000000000000D+00
   316  3.1500000000000D+00  0.0000000000000D+00  0.0000000000000D+00
   317  3.1600000000000D+00  0.0000000000000D+00  0.0000000000000D+00
   318  3.1700000000000D+00  0.0000000000000D+00  0.0000000000000D+00
   319  3.1800000000000D+00  0.0000000000000D+00  0.0000000000000D+00
   320  3.1900000000000D+00  0.0000000000000D+00  0.0000000000000D+00
   321  3.2000000000000D+00  0.0000000000000D+00  0.0000000000000D+00
   322  3.2100000000000D+00  0.0000000000000D+00  0.0000000000000D+00
   323  3.2200000000000D+00  0.0000000000000D+00  0.0000000000000D+00
   324  3.2300000000000D+00  0.0000000000000D+00  0.0000000000000D+00
   325  3.2400000000000D+00  0.0000000000000D+00  0.0000000000000D+00
   326  3.2500000000000D+00  0.0000000000000D+00  0.0000000000000D+00
   327  3.2600000000000D+00  0.0000000000000D+00  0.0000000000000D+00
   328  3.2700000000000D+00  0.0000000000000D+00  0.0000000000000D+00
   329  3.2800000000000D+00  0.0000000000000D+00  0.0000000000000D+00
   330  3.2900000000000D+00  0.0000000000000D+00  0.0000000000000D+00
   331  3.3000000000000D+00  0.0000000000000D+00  0.0000000000000D+00
   332  3.3100000000000D+00  0.0000000000000D+00  0.0000000000000D+00
   333  3.3200000000000D+00  0.0000000000000D+00  0.0000000000000D+00
   334  3.3300000000000D+00  0.0000000000000D+00  0.0000000000000D+00
   335  3.3400000000000D+00  0.0000000000000D+00  0.0000000000000D+00
   336  3.3500000000000D+00  0.0000000000000D+00  0.0000000000000D+00
   337  3.3600000000000D+00  0.0000000000000D+00  0.0000000000000D+00
   338  3.3700000000000D+00  0.0000000000000D+00  0.0000000000000D+00
   339  3.3800000000000D+00  0.0000000000000D+00  0.0000000000000D+00
   340  3.3900000000000D+00  0.0000000000000D+00  0.0000000000000D+00
   341  3.4000000000000D+00  0.0000000000000D+00  0.0000000000000D+00
   342  3.4100000000000D+00  0.0000000000000D+00  0.0000000000000D+00
   343  3.4200000000000D+00  0.0000000000000D+00  0.0000000000000D+00
   344  3.4300000000000D+00  0.0000000000000D+00  0.0000000000000D+00
   345  3.4400000000000D+00  0.0000000000000D+00  0.0000000000000D+00
   346  3.4500000000000D+00  0.0000000000000D+00  0.0000000000000D+00
   347  3.4600000000000D+00  0.0000000000000D+00  0.0000000000000D+00
   348  3.4700000000000D+00  0.0000000000000D+00  0.0000000000000D+00
   349  3.4800000000000D+00  0.0000000000000D+00  0.0000000000000D+00
   350  3.4900000000000D+00  0.0000000000000D+00  0.0000000000000D+00
   351  3.5000000000000D+00  0.0000000000000D+00  0.0000000000000D+00
   352  3.5100000000000D+00  0.0000000000000D+00  0.0000000000000D+00
   353  3.5200000000000D+00  0.0000000000000D+00  0.0000000000000D+00
   354  3.5300000000000D+00  0.0000000000000D+00  0.0000000000000D+00
   355  3.5400000000000D+00  0.0000000000000D+00  0.0000000000000D+00
   356  3.5500000000000D+00  0.0000000000000D+00  0.0000000000000D+00
   357  3.5600000000000D+00  0.0000000000000D+00  0.0000000000000D+00
   358  3.5700000000000D+00  0.0000000000000D+00  0.0000000000000D+00
   359  3.5800000000000D+00  0.0000000000000D+00  0.0000000000000D+00
   360  3.5900000000000D+00  0.0000000000000D+00  0.0000000000000D+00
   361  3.6000000000000D+00  0.0000000000000D+00  0.0000000000000D+00
   362  3.6100000000000D+00  0.0000000000000D+00  0.0000000000000D+00
   363  3.6200000000000D+00  0.0000000000000D+00  0.0000000000000D+00
   364  3.6300000000000D+00  0.0000000000000D+00  0.0000000000000D+00
   365  3.6400000000000D+00  0.0000000000000D+00  0.0000000000000D+00
   366  3.6500000000000D+00  0.0000000000000D+00  0.0000000000000D+00
   367  3.6600000000000D+00  0.0000000000000D+00  0.0000000000000D+00
   368  3.6700000000000D+00  0.0000000000000D+00  0.0000000000000D+00
   369  3.6800000000000D+00  0.0000000000000D+00  0.0000000000000D+00
   370  3.6900000000000D+00  0.0000000000000D+00  0.0000000000000D+00
   371  3.7000000000000D+00  0.0000000000000D+00  0.0000000000000D+00
   372  3.7100000000000D+00  0.0000000000000D+00  0.0000000000000D+00
   373  3.7200000000000D+00  0.0000000000000D+00  0.0000000000000D+00
   374  3.7300000000000D+00  0.0000000000000D+00  0.0000000000000D+00
   375  3.7400000000000D+00  0.0000000000000D+00  0.0000000000000D+00
   376  3.7500000000000D+00  0.0000000000000D+00  0.0000000000000D+00
   377  3.7600000000000D+00  0.0000000000000D+00  0.0000000000000D+00
   378  3.7700000000000D+00  0.0000000000000D+00  0.0000000000000D+00
   379  3.7800000000000D+00  0.0000000000000D+00  0.0000000000000D+00
   380  3.7900000000000D+00  0.0000000000000D+00  0.0000000000000D+00
   381  3.8000000000000D+00  0.0000000000000D+00  0.0000000000000D+00
   382  3.8100000000000D+00  0.0000000000000D+00  0.0000000000000D+00
   383  3.8200000000000D+00  0.0000000000000D+00  0.0000000000000D+00
   384  3.8300000000000D+00  0.0000000000000D+00  0.0000000000000D+00
   385  3.8400000000000D+00  0.0000000000000D+00  0.0000000000000D+00
   386  3.8500000000000D+00  0.0000000000000D+00  0.0000000000000D+00
   387  3.8600000000000D+00  0.0000000000000D+00  0.0000000000000D+00
   388  3.8700000000000D+00  0.0000000000000D+00  0.0000000000000D+00
   389  3.8800000000000D+00  0.0000000000000D+00  0.0000000000000D+00
   390  3.8900000000000D+00  0.0000000000000D+00  0.0000000000000D+00
   391  3.9000000000000D+00  0.0000000000000D+00  0.0000000000000D+00
   392  3.9100000000000D+00  0.0000000000000D+00  0.0000000000000D+00
   393  3.9200000000000D+00  0.0000000000000D+00  0.0000000000000D+00
   394  3.9300000000000D+00  0.0000000000000D+00  0.0000000000000D+00
   395  3.9400000000000D+00  0.0000000000000D+00  0.0000000000000D+00
   396  3.9500000000000D+00  0.0000000000000D+00  0.0000000000000D+00
   397  3.9600000000000D+00  0.0000000000000D+00  0.0000000000000D+00
   398  3.9700000000000D+00  0.0000000000000D+00  0.0000000000000D+00
   399  3.9800000000000D+00  0.0000000000000D+00  0.0000000000000D+00
   400  3.9900000000000D+00  0.0000000000000D+00  0.0000000000000D+00
   401  4.0000000000000D+00  0.0000000000000D+00  0.0000000000000D+00
   402  4.0100000000000D+00  0.0000000000000D+00  0.0000000000000D+00
   403  4.0200000000000D+00  0.0000000000000D+00  0.0000000000000D+00
   404  4.0300000000000D+00  0.0000000000000D+00  0.0000000000000D+00
   405  4.0400000000000D+00  0.0000000000000D+00  0.0000000000000D+00
   406  4.0500000000000D+00  0.0000000000000D+00  0.0000000000000D+00
   407  4.0600000000000D+00  0.0000000000000D+00  0.0000000000000D+00
   408  4.0700000000000D+00  0.0000000000000D+00  0.0000000000000D+00
   409  4.0800000000000D+00  0.0000000000000D+00  0.0000000000000D+00
   410  4.0900000000000D+00  0.0000000000000D+00  0.0000000000000D+00
   411  4.1000000000000D+00  0.0000000000000D+00  0.0000000000000D+00
   412  4.1100000000000D+00  0.0000000000000D+00  0.0000000000000D+00
   413  4.1200000000000D+00  0.0000000000000D+00  0.0000000000000D+00
   414  4.1300000000000D+00  0.0000000000000D+00  0.0000000000000D+00
   415  4.1400000000000D+00  0.0000000000000D+00  0.0000000000000D+00
   416  4.1500000000000D+00  0.0000000000000D+00  0.0000000000000D+00
   417  4.1600000000000D+00  0.0000000000000D+00  0.0000000000000D+00
   418  4.1700000000000D+00  0.0000000000000D+00  0.0000000000000D+00
   419  4.1800000000000D+00  0.0000000000000D+00  0.0000000000000D+00
   420  4.1900000000000D+00  0.0000000000000D+00  0.0000000000000D+00
   421  4.2000000000000D+00  0.0000000000000D+00  0.0000000000000D+00
   422  4.2100000000000D+00  0.0000000000000D+00  0.0000000000000D+00