Se    ONCVPSP-3.3.1  r_core=   2.63348   2.72943   3.38315
     34.0000      6.0000      210904    zatom,zion,pspd
     8      11   2     4   600     0    pspcod,pspxc,lmax,lloc,mmax,r2well
  5.99000000  0.00000000  0.00000000    rchrg fchrg qchrg
     2     3     3     0    nproj
     3     1           extension_switch
     4     4     0    nprojso
   0                         3.7218066182180D-01  6.1708035369479D+00
     1  0.0000000000000D+00 -1.3502476914340D-11  5.9142968300563D-12
     2  1.0000000000000D-02 -1.5894844441331D-02  3.1287253212835D-02
     3  2.0000000000000D-02 -3.1781550197400D-02  6.2564283824125D-02
     4  3.0000000000000D-02 -4.7651874742179D-02  9.3820817195998D-02
     5  4.0000000000000D-02 -6.3497368561662D-02  1.2504647493920D-01
     6  5.0000000000000D-02 -7.9309273390369D-02  1.5623072383905D-01
     7  6.0000000000000D-02 -9.5078422514932D-02  1.8736282573929D-01
     8  7.0000000000000D-02 -1.1079514381801D-01  2.1843178869609D-01
     9  8.0000000000000D-02 -1.2644916622231D-01  2.4942631970869D-01
    10  9.0000000000000D-02 -1.4202953017778D-01  2.8033477932586D-01
    11  1.0000000000000D-01 -1.5752450281521D-01  3.1114513841851D-01
    12  1.1000000000000D-01 -1.7292149836662D-01  3.4184493739895D-01
    13  1.2000000000000D-01 -1.8820700442645D-01  3.7242124815552D-01
    14  1.3000000000000D-01 -2.0336651459946D-01  4.0286063895917D-01
    15  1.4000000000000D-01 -2.1838446804903D-01  4.3314914258433D-01
    16  1.5000000000000D-01 -2.3324419642585D-01  4.6327222787157D-01
    17  1.6000000000000D-01 -2.4792787862022D-01  4.9321477494362D-01
    18  1.7000000000000D-01 -2.6241650374236D-01  5.2296105426889D-01
    19  1.8000000000000D-01 -2.7668984269417D-01  5.5249470974911D-01
    20  1.9000000000000D-01 -2.9072642865306D-01  5.8179874598839D-01
    21  2.0000000000000D-01 -3.0450354674375D-01  6.1085551988183D-01
    22  2.1000000000000D-01 -3.1799723312781D-01  6.3964673664105D-01
    23  2.2000000000000D-01 -3.3118228369334D-01  6.6815345035362D-01
    24  2.3000000000000D-01 -3.4403227247864D-01  6.9635606915155D-01
    25  2.4000000000000D-01 -3.5651957991400D-01  7.2423436504241D-01
    26  2.5000000000000D-01 -3.6861543091606D-01  7.5176748843467D-01
    27  2.6000000000000D-01 -3.8028994281811D-01  7.7893398736623D-01
    28  2.7000000000000D-01 -3.9151218306942D-01  8.0571183142298D-01
    29  2.8000000000000D-01 -4.0225023658557D-01  8.3207844031164D-01
    30  2.9000000000000D-01 -4.1247128258145D-01  8.5801071702878D-01
    31  3.0000000000000D-01 -4.2214168066839D-01  8.8348508554589D-01
    32  3.1000000000000D-01 -4.3122706594770D-01  9.0847753290823D-01
    33  3.2000000000000D-01 -4.3969245278448D-01  9.3296365562400D-01
    34  3.3000000000000D-01 -4.4750234689807D-01  9.5691871019905D-01
    35  3.4000000000000D-01 -4.5462086536002D-01  9.8031766765204D-01
    36  3.5000000000000D-01 -4.6101186404572D-01  1.0031352718251D+00
    37  3.6000000000000D-01 -4.6663907204353D-01  1.0253461012859D+00
    38  3.7000000000000D-01 -4.7146623248458D-01  1.0469246345990D+00
    39  3.8000000000000D-01 -4.7545724921813D-01  1.0678453187270D+00
    40  3.9000000000000D-01 -4.7857633872102D-01  1.0880826403045D+00
    41  4.0000000000000D-01 -4.8078818659634D-01  1.1076111995155D+00
    42  4.1000000000000D-01 -4.8205810798597D-01  1.1264057862866D+00
    43  4.2000000000000D-01 -4.8235221119238D-01  1.1444414584993D+00
    44  4.3000000000000D-01 -4.8163756378155D-01  1.1616936219107D+00
    45  4.4000000000000D-01 -4.7988236041535D-01  1.1781381114602D+00
    46  4.5000000000000D-01 -4.7705609164393D-01  1.1937512736363D+00
    47  4.6000000000000D-01 -4.7312971287224D-01  1.2085100495614D+00
    48  4.7000000000000D-01 -4.6807581270331D-01  1.2223920584541D+00
    49  4.8000000000000D-01 -4.6186877985169D-01  1.2353756811189D+00
    50  4.9000000000000D-01 -4.5448496781534D-01  1.2474401431113D+00
    51  5.0000000000000D-01 -4.4590285649211D-01  1.2585655972245D+00
    52  5.1000000000000D-01 -4.3610320992984D-01  1.2687332049425D+00
    53  5.2000000000000D-01 -4.2506922940293D-01  1.2779252165076D+00
    54  5.3000000000000D-01 -4.1278670101842D-01  1.2861250492495D+00
    55  5.4000000000000D-01 -3.9924413706678D-01  1.2933173638313D+00
    56  5.5000000000000D-01 -3.8443291034808D-01  1.2994881380691D+00
    57  5.6000000000000D-01 -3.6834738072462D-01  1.3046247379924D+00
    58  5.7000000000000D-01 -3.5098501317317D-01  1.3087159858189D+00
    59  5.8000000000000D-01 -3.3234648663668D-01  1.3117522245264D+00
    60  5.9000000000000D-01 -3.1243579300462D-01  1.3137253787194D+00
    61  6.0000000000000D-01 -2.9126032558376D-01  1.3146290114942D+00
    62  6.1000000000000D-01 -2.6883095645676D-01  1.3144583770275D+00
    63  6.2000000000000D-01 -2.4516210216470D-01  1.3132104686207D+00
    64  6.3000000000000D-01 -2.2027177719074D-01  1.3108840619546D+00
    65  6.4000000000000D-01 -1.9418163476630D-01  1.3074797533224D+00
    66  6.5000000000000D-01 -1.6691699456712D-01  1.3029999926282D+00
    67  6.6000000000000D-01 -1.3850685691593D-01  1.2974491109567D+00
    68  6.7000000000000D-01 -1.0898390315848D-01  1.2908333425422D+00
    69  6.8000000000000D-01 -7.8384481933015D-02  1.2831608409801D+00
    70  6.9000000000000D-01 -4.6748581107110D-02  1.2744416895528D+00
    71  7.0000000000000D-01 -1.4119785212674D-02  1.2646879055569D+00
    72  7.1000000000000D-01  1.9454781733818D-02  1.2539134385464D+00
    73  7.2000000000000D-01  5.3924528079586D-02  1.2421341624257D+00
    74  7.3000000000000D-01  8.9235481047124D-02  1.2293678613525D+00
    75  7.4000000000000D-01  1.2533038784356D-01  1.2156342094313D+00
    76  7.5000000000000D-01  1.6214883124217D-01  1.2009547442047D+00
    77  7.6000000000000D-01  1.9962735944942D-01  1.1853528339709D+00
    78  7.7000000000000D-01  2.3769963001003D-01  1.1688536389821D+00
    79  7.8000000000000D-01  2.7629656744232D-01  1.1514840665986D+00
    80  7.9000000000000D-01  3.1534653423586D-01  1.1332727205006D+00
    81  8.0000000000000D-01  3.5477551478343D-01  1.1142498440804D+00
    82  8.1000000000000D-01  3.9450731176145D-01  1.0944472581606D+00
    83  8.2000000000000D-01  4.3446375441451D-01  1.0738982932068D+00
    84  8.3000000000000D-01  4.7456491814396D-01  1.0526377162247D+00
    85  8.4000000000000D-01  5.1472935474497D-01  1.0307016525525D+00
    86  8.5000000000000D-01  5.5487433258345D-01  1.0081275027791D+00
    87  8.6000000000000D-01  5.9491608595291D-01  9.8495385503972D-01
    88  8.7000000000000D-01  6.3477007280132D-01  9.6122039295810D-01
    89  8.8000000000000D-01  6.7435123997132D-01  9.3696779952152D-01
    90  8.9000000000000D-01  7.1357429505135D-01  9.1223765719370D-01
    91  9.0000000000000D-01  7.5235398389389D-01  8.8707234458434D-01
    92  9.1000000000000D-01  7.9060537281563D-01  8.6151493000984D-01
    93  9.2000000000000D-01  8.2824413445866D-01  8.3560906229270D-01
    94  9.3000000000000D-01  8.6518683625648D-01  8.0939885915973D-01
    95  9.4000000000000D-01  9.0135123041747D-01  7.8292879360984D-01
    96  9.5000000000000D-01  9.3665654431095D-01  7.5624357863246D-01
    97  9.6000000000000D-01  9.7102377011421D-01  7.2938805066574D-01
    98  9.7000000000000D-01  1.0043759525589D+00  7.0240705219111D-01
    99  9.8000000000000D-01  1.0366384735953D+00  6.7534531386664D-01
   100  9.9000000000000D-01  1.0677393327771D+00  6.4824733660605D-01
   101  1.0000000000000D+00  1.0976094221594D+00  6.2115727401357D-01
   102  1.0100000000000D+00  1.1261827944922D+00  5.9411881558668D-01
   103  1.0200000000000D+00  1.1533969234867D+00  5.6717507109898D-01
   104  1.0300000000000D+00  1.1791929549302D+00  5.4036845657527D-01
   105  1.0400000000000D+00  1.2035159474274D+00  5.1374058226796D-01
   106  1.0500000000000D+00  1.2263151015494D+00  4.8733214304127D-01
   107  1.0600000000000D+00  1.2475439761804D+00  4.6118281156429D-01
   108  1.0700000000000D+00  1.2671606908643D+00  4.3533113470863D-01
   109  1.0800000000000D+00  1.2851281129665D+00  4.0981443353896D-01
   110  1.0900000000000D+00  1.3014140284839D+00  3.8466870727635D-01
   111  1.1000000000000D+00  1.3159912953583D+00  3.5992854160521D-01
   112  1.1100000000000D+00  1.3288379781708D+00  3.3562702168320D-01
   113  1.1200000000000D+00  1.3399374631199D+00  3.1179565020373D-01
   114  1.1300000000000D+00  1.3492785522173D+00  2.8846427084643D-01
   115  1.1400000000000D+00  1.3568555356651D+00  2.6566099743849D-01
   116  1.1500000000000D+00  1.3626682414172D+00  2.4341214913393D-01
   117  1.1600000000000D+00  1.3667220609535D+00  2.2174219190626D-01
   118  1.1700000000000D+00  1.3690279503453D+00  2.0067368663063D-01
   119  1.1800000000000D+00  1.3696024057246D+00  1.8022724401682D-01
   120  1.1900000000000D+00  1.3684674123206D+00  1.6042148663472D-01
   121  1.2000000000000D+00  1.3656503662513D+00  1.4127301826400D-01
   122  1.2100000000000D+00  1.3611839683296D+00  1.2279640077164D-01
   123  1.2200000000000D+00  1.3551060891780D+00  1.0500413870696D-01
   124  1.2300000000000D+00  1.3474596049880D+00  8.7906671788816D-02
   125  1.2400000000000D+00  1.3382922033187D+00  7.1512375435969D-02
   126  1.2500000000000D+00  1.3276561583874D+00  5.5827569470578D-02
   127  1.2600000000000D+00  1.3156080753383D+00  4.0856535111554D-02
   128  1.2700000000000D+00  1.3022086030305D+00  2.6601540354907D-02
   129  1.2800000000000D+00  1.2875221149634D+00  1.3062873809396D-02
   130  1.2900000000000D+00  1.2716163579788D+00  2.3888704818652D-04
   131  1.3000000000000D+00  1.2545620684353D+00 -1.1873954482352D-02
   132  1.3100000000000D+00  1.2364325556403D+00 -2.3281011988461D-02
   133  1.3200000000000D+00  1.2173032523267D+00 -3.3989405280555D-02
   134  1.3300000000000D+00  1.1972512320339D+00 -4.4007936167400D-02
   135  1.3400000000000D+00  1.1763546933419D+00 -5.3347003340389D-02
   136  1.3500000000000D+00  1.1546924108788D+00 -6.2018508784474D-02
   137  1.3600000000000D+00  1.1323431531400D+00 -7.0035755793465D-02
   138  1.3700000000000D+00  1.1093850672140D+00 -7.7413338682948D-02
   139  1.3800000000000D+00  1.0858950304553D+00 -8.4167024279247D-02
   140  1.3900000000000D+00  1.0619479693475D+00 -9.0313625325104D-02
   141  1.4000000000000D+00  1.0376161457213D+00 -9.5870865917399D-02
   142  1.4100000000000D+00  1.0129684105672D+00 -1.0085723911767D-01
   143  1.4200000000000D+00  9.8806941991175D-01 -1.0529185658517D-01
   144  1.4300000000000D+00  9.6297884793542D-01 -1.0919429229580D-01
   145  1.4400000000000D+00  9.3775045336598D-01 -1.1258441195418D-01
   146  1.4500000000000D+00  9.1243152117533D-01 -1.1548222144480D-01
   147  1.4600000000000D+00  8.8706168724986D-01 -1.1790766665372D-01
   148  1.4700000000000D+00  8.6167087488953D-01 -1.1988039315170D-01
   149  1.4800000000000D+00  8.3628260255244D-01 -1.2141977991636D-01
   150  1.4900000000000D+00  8.1091688576263D-01 -1.2254497787398D-01
   151  1.5000000000000D+00  7.8559395706148D-01 -1.2327508362385D-01
   152  1.5100000000000D+00  7.6033610706506D-01 -1.2362921235141D-01
   153  1.5200000000000D+00  7.3516622609532D-01 -1.2362641694915D-01
   154  1.5300000000000D+00  7.1010781346923D-01 -1.2328567359813D-01
   155  1.5400000000000D+00  6.8518482051201D-01 -1.2262585399581D-01
   156  1.5500000000000D+00  6.6042145449421D-01 -1.2166569587019D-01
   157  1.5600000000000D+00  6.3584199882066D-01 -1.2042377220818D-01
   158  1.5700000000000D+00  6.1147064508490D-01 -1.1891846008805D-01
   159  1.5800000000000D+00  5.8733134026215D-01 -1.1716790947098D-01
   160  1.5900000000000D+00  5.6344765045093D-01 -1.1519001263846D-01
   161  1.6000000000000D+00  5.3984263819249D-01 -1.1300237426561D-01
   162  1.6100000000000D+00  5.1653875478041D-01 -1.1062228267415D-01
   163  1.6200000000000D+00  4.9355774561581D-01 -1.0806668229379D-01
   164  1.6300000000000D+00  4.7092056853618D-01 -1.0535214763287D-01
   165  1.6400000000000D+00  4.4864732366207D-01 -1.0249485881605D-01
   166  1.6500000000000D+00  4.2675719415065D-01 -9.9510578816721D-02
   167  1.6600000000000D+00  4.0526839657653D-01 -9.6414632445939D-02
   168  1.6700000000000D+00  3.8419814029265D-01 -9.3221887121302D-02
   169  1.6800000000000D+00  3.6356259457549D-01 -8.9946735461729D-02
   170  1.6900000000000D+00  3.4337686305897D-01 -8.6603079679868D-02
   171  1.7000000000000D+00  3.2365496434468D-01 -8.3204317789647D-02
   172  1.7100000000000D+00  3.0440981845003D-01 -7.9763331581407D-02
   173  1.7200000000000D+00  2.8565323815381D-01 -7.6292476354704D-02
   174  1.7300000000000D+00  2.6739592498017D-01 -7.2803572357320D-02
   175  1.7400000000000D+00  2.4964746909711D-01 -6.9307897896627D-02
   176  1.7500000000000D+00  2.3241635287257D-01 -6.5816184073723D-02
   177  1.7600000000000D+00  2.1570995762840D-01 -6.2338611091354D-02
   178  1.7700000000000D+00  1.9953457327576D-01 -5.8884806087592D-02
   179  1.7800000000000D+00  1.8389541062088D-01 -5.5463842436996D-02
   180  1.7900000000000D+00  1.6879661595282D-01 -5.2084240472209D-02
   181  1.8000000000000D+00  1.5424128790440D-01 -4.8753969562331D-02
   182  1.8100000000000D+00  1.4023149613717D-01 -4.5480451500696D-02
   183  1.8200000000000D+00  1.2676830198672D-01 -4.2270565136227D-02
   184  1.8300000000000D+00  1.1385178060311D-01 -3.9130652201061D-02
   185  1.8400000000000D+00  1.0148104478089D-01 -3.6066524266475D-02
   186  1.8500000000000D+00  8.9654270044537D-02 -3.3083470778145D-02
   187  1.8600000000000D+00  7.8368721158270D-02 -3.0186268104461D-02
   188  1.8700000000000D+00  6.7620779749672D-02 -2.7379189545253D-02
   189  1.8800000000000D+00  5.7405973097633D-02 -2.4666016238719D-02
   190  1.8900000000000D+00  4.7719003909593D-02 -2.2050048907711D-02
   191  1.9000000000000D+00  3.8553781041322D-02 -1.9534120387848D-02
   192  1.9100000000000D+00  2.9903451076220D-02 -1.7120608876968D-02
   193  1.9200000000000D+00  2.1760430664491D-02 -1.4811451846492D-02
   194  1.9300000000000D+00  1.4116439576668D-02 -1.2608160561428D-02
   195  1.9400000000000D+00  6.9625343581349D-03 -1.0511835138518D-02
   196  1.9500000000000D+00  2.8914254862662D-04 -8.5231801052870D-03
   197  1.9600000000000D+00 -5.9139026485498D-03 -6.6425203758887D-03
   198  1.9700000000000D+00 -1.1657327287264D-02 -4.8698176151159D-03
   199  1.9800000000000D+00 -1.6952381282330D-02 -3.2046869143660D-03
   200  1.9900000000000D+00 -2.1810802762336D-02 -1.6464137315783D-03
   201  2.0000000000000D+00 -2.6244782229261D-02 -1.9397105624281D-04
   202  2.0100000000000D+00 -3.0266926633758D-02  1.1539632918511D-03
   203  2.0200000000000D+00 -3.3890223373449D-02  2.3989892204973D-03
   204  2.0300000000000D+00 -3.7128004350503D-02  3.5429668981970D-03
   205  2.0400000000000D+00 -3.9993910093086D-02  4.5879992509056D-03
   206  2.0500000000000D+00 -4.2501854035763D-02  5.5364144972424D-03
   207  2.0600000000000D+00 -4.4665987041574D-02  6.3907487847586D-03
   208  2.0700000000000D+00 -4.6500662139691D-02  7.1537288967238D-03
   209  2.0800000000000D+00 -4.8020399672711D-02  7.8282551846204D-03
   210  2.0900000000000D+00 -4.9239852764378D-02  8.4173846450317D-03
   211  2.1000000000000D+00 -5.0173773257455D-02  8.9243142578193D-03
   212  2.1100000000000D+00 -5.0836978158877D-02  9.3523646088257D-03
   213  2.1200000000000D+00 -5.1244316546082D-02  9.7049637582738D-03
   214  2.1300000000000D+00 -5.1410637146858D-02  9.9856315178311D-03
   215  2.1400000000000D+00 -5.1350756513168D-02  1.0197964026891D-02
   216  2.1500000000000D+00 -5.1079427818401D-02  1.0345618732488D-02
   217  2.1600000000000D+00 -5.0611310504307D-02  1.0432299816244D-02
   218  2.1700000000000D+00 -4.9960939757495D-02  1.0461743864199D-02
   219  2.1800000000000D+00 -4.9142698194903D-02  1.0437706261240D-02
   220  2.1900000000000D+00 -4.8170788394989D-02  1.0363947998652D-02
   221  2.2000000000000D+00 -4.7059205743706D-02  1.0244222899937D-02
   222  2.2100000000000D+00 -4.5821710844735D-02  1.0082265194876D-02
   223  2.2200000000000D+00 -4.4471799687238D-02  9.8817770991958D-03
   224  2.2300000000000D+00 -4.3022682147661D-02  9.6464179917678D-03
   225  2.2400000000000D+00 -4.1487259144414D-02  9.3797937722640D-03
   226  2.2500000000000D+00 -3.9878104277869D-02  9.0854471978399D-03
   227  2.2600000000000D+00 -3.8207436188825D-02  8.7668473906589D-03
   228  2.2700000000000D+00 -3.6487095264297D-02  8.4273802783621D-03
   229  2.2800000000000D+00 -3.4728522473870D-02  8.0703397355031D-03
   230  2.2900000000000D+00 -3.2942742107996D-02  7.6989196719881D-03
   231  2.3000000000000D+00 -3.1140344904333D-02  7.3162064996187D-03
   232  2.3100000000000D+00 -2.9331468942048D-02  6.9251717079949D-03
   233  2.3200000000000D+00 -2.7525782534346D-02  6.5286650687827D-03
   234  2.3300000000000D+00 -2.5732467399498D-02  6.1294081961491D-03
   235  2.3400000000000D+00 -2.3960204152385D-02  5.7299888284824D-03
   236  2.3500000000000D+00 -2.2217157738135D-02  5.3328553981704D-03
   237  2.3600000000000D+00 -2.0510963892545D-02  4.9403120620880D-03
   238  2.3700000000000D+00 -1.8848716385561D-02  4.5545141782037D-03
   239  2.3800000000000D+00 -1.7236955087420D-02  4.1774641649036D-03
   240  2.3900000000000D+00 -1.5681654813114D-02  3.8110077582487D-03
   241  2.4000000000000D+00 -1.4188214936266D-02  3.4568306535163D-03
   242  2.4100000000000D+00 -1.2761449737922D-02  3.1164554893211D-03
   243  2.4200000000000D+00 -1.1405579503434D-02  2.7912391812154D-03
   244  2.4300000000000D+00 -1.0124222334174D-02  2.4823705783349D-03
   245  2.4400000000000D+00 -8.9203866499398D-03  2.1908684273715D-03
   246  2.4500000000000D+00 -7.7964643662831D-03  1.9175796197030D-03
   247  2.4600000000000D+00 -6.7542247264223D-03  1.6631777077774D-03
   248  2.4700000000000D+00 -5.7948087935560D-03  1.4281616953877D-03
   249  2.4800000000000D+00 -4.9187245323411D-03  1.2128550361485D-03
   250  2.4900000000000D+00 -4.1258424998165D-03  1.0174048583296D-03
   251  2.5000000000000D+00 -3.4153921599469D-03  8.4178143026814D-04
   252  2.5100000000000D+00 -2.7859587076340D-03  6.8577775880882D-04
   253  2.5200000000000D+00 -2.2354804637167D-03  5.4900937993207D-04
   254  2.5300000000000D+00 -1.7612468642817D-03  4.3091436026374D-04
   255  2.5400000000000D+00 -1.3598968784556D-03  3.3075336112627D-04
   256  2.5500000000000D+00 -1.0275679774726D-03  2.4762967526680D-04
   257  2.5600000000000D+00 -7.5933470706511D-04  1.8041557218192D-04
   258  2.5700000000000D+00 -5.4979782211483D-04  1.2783052294644D-04
   259  2.5800000000000D+00 -3.9136262880170D-04  8.8133517858556D-05
   260  2.5900000000000D+00 -2.8045121110503D-04  6.0238890166552D-05
   261  2.6000000000000D+00 -2.1124209115688D-04  4.2597779892402D-05
   262  2.6100000000000D+00 -1.8081543871769D-04  3.4188626870314D-05
   263  2.6200000000000D+00 -1.6927141489233D-04  3.0771669809832D-05
   264  2.6300000000000D+00 -1.5729920485644D-04  2.8241262882515D-05
   265  2.6400000000000D+00 -1.2328755457121D-04  2.2101575425883D-05
   266  2.6500000000000D+00 -7.2445946485488D-05  1.3005530629376D-05
   267  2.6600000000000D+00 -2.1497312941826D-05  3.8707628086249D-06
   268  2.6700000000000D+00  9.6361850589586D-06 -1.7142334647664D-06
   269  2.6800000000000D+00  1.5575959142119D-05 -2.7707067725751D-06
   270  2.6900000000000D+00  8.3653630411208D-06 -1.4883304251856D-06
   271  2.7000000000000D+00 -1.1957008933569D-06  2.1106466050373D-07
   272  2.7100000000000D+00 -3.3973780118208D-06  5.9919339280078D-07
   273  2.7200000000000D+00 -2.5392493902705D-06  4.4752510598713D-07
   274  2.7300000000000D+00  2.8015918434065D-08 -5.0284220252899D-09
   275  2.7400000000000D+00  3.8063175657425D-07 -6.8317485746086D-08
   276  2.7500000000000D+00  3.7978422484878D-07 -6.8165366970985D-08
   277  2.7600000000000D+00  8.3440161188576D-08 -1.4976212373755D-08
   278  2.7700000000000D+00  0.0000000000000D+00  0.0000000000000D+00
   279  2.7800000000000D+00  0.0000000000000D+00  0.0000000000000D+00
   280  2.7900000000000D+00  0.0000000000000D+00  0.0000000000000D+00
   281  2.8000000000000D+00  0.0000000000000D+00  0.0000000000000D+00
   282  2.8100000000000D+00  0.0000000000000D+00  0.0000000000000D+00
   283  2.8200000000000D+00  0.0000000000000D+00  0.0000000000000D+00
   284  2.8300000000000D+00  0.0000000000000D+00  0.0000000000000D+00
   285  2.8400000000000D+00  0.0000000000000D+00  0.0000000000000D+00
   286  2.8500000000000D+00  0.0000000000000D+00  0.0000000000000D+00
   287  2.8600000000000D+00  0.0000000000000D+00  0.0000000000000D+00
   288  2.8700000000000D+00  0.0000000000000D+00  0.0000000000000D+00
   289  2.8800000000000D+00  0.0000000000000D+00  0.0000000000000D+00
   290  2.8900000000000D+00  0.0000000000000D+00  0.0000000000000D+00
   291  2.9000000000000D+00  0.0000000000000D+00  0.0000000000000D+00
   292  2.9100000000000D+00  0.0000000000000D+00  0.0000000000000D+00
   293  2.9200000000000D+00  0.0000000000000D+00  0.0000000000000D+00
   294  2.9300000000000D+00  0.0000000000000D+00  0.0000000000000D+00
   295  2.9400000000000D+00  0.0000000000000D+00  0.0000000000000D+00
   296  2.9500000000000D+00  0.0000000000000D+00  0.0000000000000D+00
   297  2.9600000000000D+00  0.0000000000000D+00  0.0000000000000D+00
   298  2.9700000000000D+00  0.0000000000000D+00  0.0000000000000D+00
   299  2.9800000000000D+00  0.0000000000000D+00  0.0000000000000D+00
   300  2.9900000000000D+00  0.0000000000000D+00  0.0000000000000D+00
   301  3.0000000000000D+00  0.0000000000000D+00  0.0000000000000D+00
   302  3.0100000000000D+00  0.0000000000000D+00  0.0000000000000D+00
   303  3.0200000000000D+00  0.0000000000000D+00  0.0000000000000D+00
   304  3.0300000000000D+00  0.0000000000000D+00  0.0000000000000D+00
   305  3.0400000000000D+00  0.0000000000000D+00  0.0000000000000D+00
   306  3.0500000000000D+00  0.0000000000000D+00  0.0000000000000D+00
   307  3.0600000000000D+00  0.0000000000000D+00  0.0000000000000D+00
   308  3.0700000000000D+00  0.0000000000000D+00  0.0000000000000D+00
   309  3.0800000000000D+00  0.0000000000000D+00  0.0000000000000D+00
   310  3.0900000000000D+00  0.0000000000000D+00  0.0000000000000D+00
   311  3.1000000000000D+00  0.0000000000000D+00  0.0000000000000D+00
   312  3.1100000000000D+00  0.0000000000000D+00  0.0000000000000D+00
   313  3.1200000000000D+00  0.0000000000000D+00  0.0000000000000D+00
   314  3.1300000000000D+00  0.0000000000000D+00  0.0000000000000D+00
   315  3.1400000000000D+00  0.0000000000000D+00  0.0000000000000D+00
   316  3.1500000000000D+00  0.0000000000000D+00  0.0000000000000D+00
   317  3.1600000000000D+00  0.0000000000000D+00  0.0000000000000D+00
   318  3.1700000000000D+00  0.0000000000000D+00  0.0000000000000D+00
   319  3.1800000000000D+00  0.0000000000000D+00  0.0000000000000D+00
   320  3.1900000000000D+00  0.0000000000000D+00  0.0000000000000D+00
   321  3.2000000000000D+00  0.0000000000000D+00  0.0000000000000D+00
   322  3.2100000000000D+00  0.0000000000000D+00  0.0000000000000D+00
   323  3.2200000000000D+00  0.0000000000000D+00  0.0000000000000D+00
   324  3.2300000000000D+00  0.0000000000000D+00  0.0000000000000D+00
   325  3.2400000000000D+00  0.0000000000000D+00  0.0000000000000D+00
   326  3.2500000000000D+00  0.0000000000000D+00  0.0000000000000D+00
   327  3.2600000000000D+00  0.0000000000000D+00  0.0000000000000D+00
   328  3.2700000000000D+00  0.0000000000000D+00  0.0000000000000D+00
   329  3.2800000000000D+00  0.0000000000000D+00  0.0000000000000D+00
   330  3.2900000000000D+00  0.0000000000000D+00  0.0000000000000D+00
   331  3.3000000000000D+00  0.0000000000000D+00  0.0000000000000D+00
   332  3.3100000000000D+00  0.0000000000000D+00  0.0000000000000D+00
   333  3.3200000000000D+00  0.0000000000000D+00  0.0000000000000D+00
   334  3.3300000000000D+00  0.0000000000000D+00  0.0000000000000D+00
   335  3.3400000000000D+00  0.0000000000000D+00  0.0000000000000D+00
   336  3.3500000000000D+00  0.0000000000000D+00  0.0000000000000D+00
   337  3.3600000000000D+00  0.0000000000000D+00  0.0000000000000D+00
   338  3.3700000000000D+00  0.0000000000000D+00  0.0000000000000D+00
   339  3.3800000000000D+00  0.0000000000000D+00  0.0000000000000D+00
   340  3.3900000000000D+00  0.0000000000000D+00  0.0000000000000D+00
   341  3.4000000000000D+00  0.0000000000000D+00  0.0000000000000D+00
   342  3.4100000000000D+00  0.0000000000000D+00  0.0000000000000D+00
   343  3.4200000000000D+00  0.0000000000000D+00  0.0000000000000D+00
   344  3.4300000000000D+00  0.0000000000000D+00  0.0000000000000D+00
   345  3.4400000000000D+00  0.0000000000000D+00  0.0000000000000D+00
   346  3.4500000000000D+00  0.0000000000000D+00  0.0000000000000D+00
   347  3.4600000000000D+00  0.0000000000000D+00  0.0000000000000D+00
   348  3.4700000000000D+00  0.0000000000000D+00  0.0000000000000D+00
   349  3.4800000000000D+00  0.0000000000000D+00  0.0000000000000D+00
   350  3.4900000000000D+00  0.0000000000000D+00  0.0000000000000D+00
   351  3.5000000000000D+00  0.0000000000000D+00  0.0000000000000D+00
   352  3.5100000000000D+00  0.0000000000000D+00  0.0000000000000D+00
   353  3.5200000000000D+00  0.0000000000000D+00  0.0000000000000D+00
   354  3.5300000000000D+00  0.0000000000000D+00  0.0000000000000D+00
   355  3.5400000000000D+00  0.0000000000000D+00  0.0000000000000D+00
   356  3.5500000000000D+00  0.0000000000000D+00  0.0000000000000D+00
   357  3.5600000000000D+00  0.0000000000000D+00  0.0000000000000D+00
   358  3.5700000000000D+00  0.0000000000000D+00  0.0000000000000D+00
   359  3.5800000000000D+00  0.0000000000000D+00  0.0000000000000D+00
   360  3.5900000000000D+00  0.0000000000000D+00  0.0000000000000D+00
   361  3.6000000000000D+00  0.0000000000000D+00  0.0000000000000D+00
   362  3.6100000000000D+00  0.0000000000000D+00  0.0000000000000D+00
   363  3.6200000000000D+00  0.0000000000000D+00  0.0000000000000D+00
   364  3.6300000000000D+00  0.0000000000000D+00  0.0000000000000D+00
   365  3.6400000000000D+00  0.0000000000000D+00  0.0000000000000D+00
   366  3.6500000000000D+00  0.0000000000000D+00  0.0000000000000D+00
   367  3.6600000000000D+00  0.0000000000000D+00  0.0000000000000D+00
   368  3.6700000000000D+00  0.0000000000000D+00  0.0000000000000D+00
   369  3.6800000000000D+00  0.0000000000000D+00  0.0000000000000D+00
   370  3.6900000000000D+00  0.0000000000000D+00  0.0000000000000D+00
   371  3.7000000000000D+00  0.0000000000000D+00  0.0000000000000D+00
   372  3.7100000000000D+00  0.0000000000000D+00  0.0000000000000D+00
   373  3.7200000000000D+00  0.0000000000000D+00  0.0000000000000D+00
   374  3.7300000000000D+00  0.0000000000000D+00  0.0000000000000D+00
   375  3.7400000000000D+00  0.0000000000000D+00  0.0000000000000D+00
   376  3.7500000000000D+00  0.0000000000000D+00  0.0000000000000D+00
   377  3.7600000000000D+00  0.0000000000000D+00  0.0000000000000D+00
   378  3.7700000000000D+00  0.0000000000000D+00  0.0000000000000D+00
   379  3.7800000000000D+00  0.0000000000000D+00  0.0000000000000D+00
   380  3.7900000000000D+00  0.0000000000000D+00  0.0000000000000D+00
   381  3.8000000000000D+00  0.0000000000000D+00  0.0000000000000D+00
   382  3.8100000000000D+00  0.0000000000000D+00  0.0000000000000D+00
   383  3.8200000000000D+00  0.0000000000000D+00  0.0000000000000D+00
   384  3.8300000000000D+00  0.0000000000000D+00  0.0000000000000D+00
   385  3.8400000000000D+00  0.0000000000000D+00  0.0000000000000D+00
   386  3.8500000000000D+00  0.0000000000000D+00  0.0000000000000D+00
   387  3.8600000000000D+00  0.0000000000000D+00  0.0000000000000D+00
   388  3.8700000000000D+00  0.0000000000000D+00  0.0000000000000D+00
   389  3.8800000000000D+00  0.0000000000000D+00  0.0000000000000D+00
   390  3.8900000000000D+00  0.0000000000000D+00  0.0000000000000D+00
   391  3.9000000000000D+00  0.0000000000000D+00  0.0000000000000D+00
   392  3.9100000000000D+00  0.0000000000000D+00  0.0000000000000D+00
   393  3.9200000000000D+00  0.0000000000000D+00  0.0000000000000D+00
   394  3.9300000000000D+00  0.0000000000000D+00  0.0000000000000D+00
   395  3.9400000000000D+00  0.0000000000000D+00  0.0000000000000D+00
   396  3.9500000000000D+00  0.0000000000000D+00  0.0000000000000D+00
   397  3.9600000000000D+00  0.0000000000000D+00  0.0000000000000D+00
   398  3.9700000000000D+00  0.0000000000000D+00  0.0000000000000D+00
   399  3.9800000000000D+00  0.0000000000000D+00  0.0000000000000D+00
   400  3.9900000000000D+00  0.0000000000000D+00  0.0000000000000D+00
   401  4.0000000000000D+00  0.0000000000000D+00  0.0000000000000D+00
   402  4.0100000000000D+00  0.0000000000000D+00  0.0000000000000D+00
   403  4.0200000000000D+00  0.0000000000000D+00  0.0000000000000D+00
   404  4.0300000000000D+00  0.0000000000000D+00  0.0000000000000D+00
   405  4.0400000000000D+00  0.0000000000000D+00  0.0000000000000D+00
   406  4.0500000000000D+00  0.0000000000000D+00  0.0000000000000D+00
   407  4.0600000000000D+00  0.0000000000000D+00  0.0000000000000D+00
   408  4.0700000000000D+00  0.0000000000000D+00  0.0000000000000D+00
   409  4.0800000000000D+00  0.0000000000000D+00  0.0000000000000D+00
   410  4.0900000000000D+00  0.0000000000000D+00  0.0000000000000D+00
   411  4.1000000000000D+00  0.0000000000000D+00  0.0000000000000D+00
   412  4.1100000000000D+00  0.0000000000000D+00  0.0000000000000D+00
   413  4.1200000000000D+00  0.0000000000000D+00  0.0000000000000D+00
   414  4.1300000000000D+00  0.0000000000000D+00  0.0000000000000D+00
   415  4.1400000000000D+00  0.0000000000000D+00  0.0000000000000D+00
   416  4.1500000000000D+00  0.0000000000000D+00  0.0000000000000D+00
   417  4.1600000000000D+00  0.0000000000000D+00  0.0000000000000D+00
   418  4.1700000000000D+00  0.0000000000000D+00  0.0000000000000D+00
   419  4.1800000000000D+00  0.0000000000000D+00  0.0000000000000D+00
   420  4.1900000000000D+00  0.0000000000000D+00  0.0000000000000D+00
   421  4.2000000000000D+00  0.0000000000000D+00  0.0000000000000D+00
   422  4.2100000000000D+00  0.0000000000000D+00  0.0000000000000D+00