Sn    ONCVPSP-3.3.1  r_core=   2.81773   2.95543   3.36982
     50.0000     14.0000      210904    zatom,zion,pspd
     8      11   2     4   600     0    pspcod,pspxc,lmax,lloc,mmax,r2well
  5.99000000  0.00000000  0.00000000    rchrg fchrg qchrg
     2     2     2     0     0    nproj
     1     1           extension_switch
   0                         5.2894154002733D+00  1.3738251107277D+00
     1  0.0000000000000D+00  1.7479351299698D-12 -6.4143135247718D-12
     2  1.0000000000000D-02  7.6036482661738D-03  2.5928748348803D-02
     3  2.0000000000000D-02  1.5234811381924D-02  5.1777307138528D-02
     4  3.0000000000000D-02  2.2920914244122D-02  7.7465733309447D-02
     5  4.0000000000000D-02  3.0689202067896D-02  1.0291457611482D-01
     6  5.0000000000000D-02  3.8566651104474D-02  1.2804512156469D-01
     7  6.0000000000000D-02  4.6579880028261D-02  1.5277963481902D-01
     8  7.0000000000000D-02  5.4755062214200D-02  1.7704159985395D-01
     9  8.0000000000000D-02  6.3117839124688D-02  2.0075595573169D-01
    10  9.0000000000000D-02  7.1693235023169D-02  2.2384932881226D-01
    11  1.0000000000000D-01  8.0505573228896D-02  2.4625026025503D-01
    12  1.1000000000000D-01  8.9578394124285D-02  2.6788942816922D-01
    13  1.2000000000000D-01  9.8934375122837D-02  2.8869986378496D-01
    14  1.3000000000000D-01  1.0859525280164D-01  3.0861716103122D-01
    15  1.4000000000000D-01  1.1858174739821D-01  3.2757967892216D-01
    16  1.5000000000000D-01  1.2891348986647D-01  3.4552873617107D-01
    17  1.6000000000000D-01  1.3960895168182D-01  3.6240879746976D-01
    18  1.7000000000000D-01  1.5068537757918D-01  3.7816765089142D-01
    19  1.8000000000000D-01  1.6215872140235D-01  3.9275657589652D-01
    20  1.9000000000000D-01  1.7404358523610D-01  4.0613050144450D-01
    21  2.0000000000000D-01  1.8635316198607D-01  4.1824815373833D-01
    22  2.1000000000000D-01  1.9909918156392D-01  4.2907219315461D-01
    23  2.2000000000000D-01  2.1229186082761D-01  4.3856933993902D-01
    24  2.3000000000000D-01  2.2593985741895D-01  4.4671048827510D-01
    25  2.4000000000000D-01  2.4005022763176D-01  4.5347080836370D-01
    26  2.5000000000000D-01  2.5462838843551D-01  4.5882983618109D-01
    27  2.6000000000000D-01  2.6967808376999D-01  4.6277155061534D-01
    28  2.7000000000000D-01  2.8520135521735D-01  4.6528443771316D-01
    29  2.8000000000000D-01  3.0119851714770D-01  4.6636154180321D-01
    30  2.9000000000000D-01  3.1766813642470D-01  4.6600050329632D-01
    31  3.0000000000000D-01  3.3460701674686D-01  4.6420358299834D-01
    32  3.1000000000000D-01  3.5201018768975D-01  4.6097767280783D-01
    33  3.2000000000000D-01  3.6987089850324D-01  4.5633429270715D-01
    34  3.3000000000000D-01  3.8818061670674D-01  4.5028957399329D-01
    35  3.4000000000000D-01  4.0692903151381D-01  4.4286422873260D-01
    36  3.5000000000000D-01  4.2610406210597D-01  4.3408350546192D-01
    37  3.6000000000000D-01  4.4569187076373D-01  4.2397713119732D-01
    38  3.7000000000000D-01  4.6567688085054D-01  4.1257923985070D-01
    39  3.8000000000000D-01  4.8604179963355D-01  3.9992828719337D-01
    40  3.9000000000000D-01  5.0676764591255D-01  3.8606695254523D-01
    41  4.0000000000000D-01  5.2783378241635D-01  3.7104202740675D-01
    42  4.1000000000000D-01  5.4921795291297D-01  3.5490429129026D-01
    43  4.2000000000000D-01  5.7089632396828D-01  3.3770837504543D-01
    44  4.3000000000000D-01  5.9284353127450D-01  3.1951261201213D-01
    45  4.4000000000000D-01  6.1503273045835D-01  3.0037887737146D-01
    46  4.5000000000000D-01  6.3743565226556D-01  2.8037241610297D-01
    47  4.6000000000000D-01  6.6002266200691D-01  2.5956165999223D-01
    48  4.7000000000000D-01  6.8276282313838D-01  2.3801803416846D-01
    49  4.8000000000000D-01  7.0562396483630D-01  2.1581575368657D-01
    50  4.9000000000000D-01  7.2857275341675D-01  1.9303161070093D-01
    51  5.0000000000000D-01  7.5157476743682D-01  1.6974475281078D-01
    52  5.1000000000000D-01  7.7459457630429D-01  1.4603645318786D-01
    53  5.2000000000000D-01  7.9759582221145D-01  1.2198987312604D-01
    54  5.3000000000000D-01  8.2054130519822D-01  9.7689817680773D-02
    55  5.4000000000000D-01  8.4339307113959D-01  7.3222485092229D-02
    56  5.5000000000000D-01  8.6611250244299D-01  4.8675210710233D-02
    57  5.6000000000000D-01  8.8866041123156D-01  2.4136206161683D-02
    58  5.7000000000000D-01  9.1099713478098D-01 -3.0570547859978D-04
    59  5.8000000000000D-01  9.3308263296911D-01 -2.4561357734119D-02
    60  5.9000000000000D-01  9.5487658749027D-01 -4.8541511194577D-02
    61  6.0000000000000D-01  9.7633850257875D-01 -7.2157125595972D-02
    62  6.1000000000000D-01  9.9742780698004D-01 -9.5319632691993D-02
    63  6.2000000000000D-01  1.0181039569024D+00 -1.1794120908682D-01
    64  6.3000000000000D-01  1.0383265396764D+00 -1.3993504819275D-01
    65  6.4000000000000D-01  1.0580553778460D+00 -1.6121563047206D-01
    66  6.5000000000000D-01  1.0772506334107D+00 -1.8169899112141D-01
    67  6.6000000000000D-01  1.0958729119358D+00 -2.0130298435790D-01
    68  6.7000000000000D-01  1.1138833662467D+00 -2.1994754347050D-01
    69  6.8000000000000D-01  1.1312437994198D+00 -2.3755493580657D-01
    70  6.9000000000000D-01  1.1479167667845D+00 -2.5405001187352D-01
    71  7.0000000000000D-01  1.1638656766504D+00 -2.6936044774701D-01
    72  7.1000000000000D-01  1.1790548894743D+00 -2.8341697999288D-01
    73  7.2000000000000D-01  1.1934498151855D+00 -2.9615363232709D-01
    74  7.3000000000000D-01  1.2070170083899D+00 -3.0750793325901D-01
    75  7.4000000000000D-01  1.2197242611765D+00 -3.1742112398602D-01
    76  7.5000000000000D-01  1.2315406932573D+00 -3.2583835583368D-01
    77  7.6000000000000D-01  1.2424368391748D+00 -3.3270887656377D-01
    78  7.7000000000000D-01  1.2523847323182D+00 -3.3798620490386D-01
    79  7.8000000000000D-01  1.2613579854988D+00 -3.4162829268503D-01
    80  7.9000000000000D-01  1.2693318678396D+00 -3.4359767401058D-01
    81  8.0000000000000D-01  1.2762833777478D+00 -3.4386160091654D-01
    82  8.1000000000000D-01  1.2821913117444D+00 -3.4239216502485D-01
    83  8.2000000000000D-01  1.2870363289375D+00 -3.3916640473281D-01
    84  8.3000000000000D-01  1.2908010109394D+00 -3.3416639752632D-01
    85  8.4000000000000D-01  1.2934699170343D+00 -3.2737933705071D-01
    86  8.5000000000000D-01  1.2950296344225D+00 -3.1879759462072D-01
    87  8.6000000000000D-01  1.2954688233755D+00 -3.0841876490025D-01
    88  8.7000000000000D-01  1.2947782571528D+00 -2.9624569553347D-01
    89  8.8000000000000D-01  1.2929508565457D+00 -2.8228650056023D-01
    90  8.9000000000000D-01  1.2899817189276D+00 -2.6655455750186D-01
    91  9.0000000000000D-01  1.2858681417067D+00 -2.4906848805699D-01
    92  9.1000000000000D-01  1.2806096400938D+00 -2.2985212240120D-01
    93  9.2000000000000D-01  1.2742079591115D+00 -2.0893444713913D-01
    94  9.3000000000000D-01  1.2666670797925D+00 -1.8634953701266D-01
    95  9.4000000000000D-01  1.2579932195269D+00 -1.6213647052371D-01
    96  9.5000000000000D-01  1.2481948265399D+00 -1.3633922968528D-01
    97  9.6000000000000D-01  1.2372825684955D+00 -1.0900658416884D-01
    98  9.7000000000000D-01  1.2252693152425D+00 -8.0191960169747D-02
    99  9.8000000000000D-01  1.2121701157331D+00 -4.9953294366308D-02
   100  9.9000000000000D-01  1.1980021691668D+00 -1.8352873399910D-02
   101  1.0000000000000D+00  1.1827847904246D+00  1.4542840645247D-02
   102  1.0100000000000D+00  1.1665393698807D+00  4.8663398234514D-02
   103  1.0200000000000D+00  1.1492893276932D+00  8.3934563270901D-02
   104  1.0300000000000D+00  1.1310600626931D+00  1.2027852625515D-01
   105  1.0400000000000D+00  1.1118788960084D+00  1.5761412905264D-01
   106  1.0500000000000D+00  1.0917750095754D+00  1.9585710055543D-01
   107  1.0600000000000D+00  1.0707793797064D+00  2.3492030249088D-01
   108  1.0700000000000D+00  1.0489247058960D+00  2.7471398459002D-01
   109  1.0800000000000D+00  1.0262453350675D+00  3.1514604829230D-01
   110  1.0900000000000D+00  1.0027771814696D+00  3.5612231813535D-01
   111  1.1000000000000D+00  9.7855764245243D-01  3.9754681994441D-01
   112  1.1100000000000D+00  9.5362551036131D-01  4.3932206491313D-01
   113  1.1200000000000D+00  9.2802088080047D-01  4.8134933864319D-01
   114  1.1300000000000D+00  9.0178505753029D-01  5.2352899419164D-01
   115  1.1400000000000D+00  8.7496045427100D-01  5.6576074815820D-01
   116  1.1500000000000D+00  8.4759049369719D-01  6.0794397883092D-01
   117  1.1600000000000D+00  8.1971950391518D-01  6.4997802540081D-01
   118  1.1700000000000D+00  7.9139261272284D-01  6.9176248725062D-01
   119  1.1800000000000D+00  7.6265563995879D-01  7.3319752231920D-01
   120  1.1900000000000D+00  7.3355498825399D-01  7.7418414354534D-01
   121  1.2000000000000D+00  7.0413753250312D-01  8.1462451240341D-01
   122  1.2100000000000D+00  6.7445050837618D-01  8.5442222854493D-01
   123  1.2200000000000D+00  6.4454140019513D-01  8.9348261457924D-01
   124  1.2300000000000D+00  6.1445782850036D-01  9.3171299504269D-01
   125  1.2400000000000D+00  5.8424743763302D-01  9.6902296862083D-01
   126  1.2500000000000D+00  5.5395778365906D-01  1.0053246727111D+00
   127  1.2600000000000D+00  5.2363622295812D-01  1.0405330394508D+00
   128  1.2700000000000D+00  4.9332980179811D-01  1.0745660423542D+00
   129  1.2800000000000D+00  4.6308514721449D-01  1.1073449327292D+00
   130  1.2900000000000D+00  4.3294835950423D-01  1.1387944651088D+00
   131  1.3000000000000D+00  4.0296490664173D-01  1.1688431109419D+00
   132  1.3100000000000D+00  3.7317952091953D-01  1.1974232598312D+00
   133  1.3200000000000D+00  3.4363609809962D-01  1.2244714076895D+00
   134  1.3300000000000D+00  3.1437759936339D-01  1.2499283311778D+00
   135  1.3400000000000D+00  2.8544595633496D-01  1.2737392478619D+00
   136  1.3500000000000D+00  2.5688197943083D-01  1.2958539616210D+00
   137  1.3600000000000D+00  2.2872526980176D-01  1.3162269927867D+00
   138  1.3700000000000D+00  2.0101413509647D-01  1.3348176926582D+00
   139  1.3800000000000D+00  1.7378550926929D-01  1.3515903420602D+00
   140  1.3900000000000D+00  1.4707487666327D-01  1.3665142335844D+00
   141  1.4000000000000D+00  1.2091620054168D-01  1.3795637373878D+00
   142  1.4100000000000D+00  9.5341856271199D-02  1.3907183502982D+00
   143  1.4200000000000D+00  7.0382569321689D-02  1.3999627281383D+00
   144  1.4300000000000D+00  4.6067358215405D-02  1.4072867012851D+00
   145  1.4400000000000D+00  2.2423482601019D-02  1.4126852733387D+00
   146  1.4500000000000D+00 -5.2360347489681D-04  1.4161586031384D+00
   147  1.4600000000000D+00 -2.2750292957686D-02  1.4177119701209D+00
   148  1.4700000000000D+00 -4.4234861768384D-02  1.4173557232793D+00
   149  1.4800000000000D+00 -6.4957499322284D-02  1.4151052139945D+00
   150  1.4900000000000D+00 -8.4900333492775D-02  1.4109807129270D+00
   151  1.5000000000000D+00 -1.0404745005105D-01  1.4050073115282D+00
   152  1.5100000000000D+00 -1.2238490648521D-01  1.3972148083415D+00
   153  1.5200000000000D+00 -1.3990074027839D-01  1.3876375807977D+00
   154  1.5300000000000D+00 -1.5658497160110D-01  1.3763144428352D+00
   155  1.5400000000000D+00 -1.7242960048928D-01  1.3632884890193D+00
   156  1.5500000000000D+00 -1.8742859854869D-01  1.3486069257345D+00
   157  1.5600000000000D+00 -2.0157789523500D-01  1.3323208900640D+00
   158  1.5700000000000D+00 -2.1487535883539D-01  1.3144852571461D+00
   159  1.5800000000000D+00 -2.2732077218045D-01  1.2951584365815D+00
   160  1.5900000000000D+00 -2.3891580328901D-01  1.2744021588452D+00
   161  1.6000000000000D+00 -2.4966397096353D-01  1.2522812522744D+00
   162  1.6100000000000D+00 -2.5957060559295D-01  1.2288634116728D+00
   163  1.6200000000000D+00 -2.6864280519613D-01  1.2042189591630D+00
   164  1.6300000000000D+00 -2.7688938698189D-01  1.1784205983267D+00
   165  1.6400000000000D+00 -2.8432083449870D-01  1.1515431623631D+00
   166  1.6500000000000D+00 -2.9094924064932D-01  1.1236633572655D+00
   167  1.6600000000000D+00 -2.9678824668587D-01  1.0948595008329D+00
   168  1.6700000000000D+00 -3.0185297745837D-01  1.0652112584702D+00
   169  1.6800000000000D+00 -3.0615997306660D-01  1.0347993766560D+00
   170  1.6900000000000D+00 -3.0972711718732D-01  1.0037054149767D+00
   171  1.7000000000000D+00 -3.1257356225322D-01  9.7201147765088D-01
   172  1.7100000000000D+00 -3.1471965175460D-01  9.3979994537008D-01
   173  1.7200000000000D+00 -3.1618683986041D-01  9.0715320842099D-01
   174  1.7300000000000D+00 -3.1699760862565D-01  8.7415340180774D-01
   175  1.7400000000000D+00 -3.1717538299971D-01  8.4088214339804D-01
   176  1.7500000000000D+00 -3.1674444389096D-01  8.0742027564726D-01
   177  1.7600000000000D+00 -3.1572983952344D-01  7.7384761202651D-01
   178  1.7700000000000D+00 -3.1415729531481D-01  7.4024268846117D-01
   179  1.7800000000000D+00 -3.1205312254360D-01  7.0668252107937D-01
   180  1.7900000000000D+00 -3.0944412598784D-01  6.7324237022822D-01
   181  1.8000000000000D+00 -3.0635751084877D-01  6.3999551228883D-01
   182  1.8100000000000D+00 -3.0282078908086D-01  6.0701301889046D-01
   183  1.8200000000000D+00 -2.9886168548140D-01  5.7436354516658D-01
   184  1.8300000000000D+00 -2.9450804361660D-01  5.4211312650261D-01
   185  1.8400000000000D+00 -2.8978773193858D-01  5.1032498524181D-01
   186  1.8500000000000D+00 -2.8472855016892D-01  4.7905934693697D-01
   187  1.8600000000000D+00 -2.7935813625036D-01  4.4837326715269D-01
   188  1.8700000000000D+00 -2.7370387399394D-01  4.1832046880224D-01
   189  1.8800000000000D+00 -2.6779280142822D-01  3.8895118972216D-01
   190  1.8900000000000D+00 -2.6165152052122D-01  3.6031204249507D-01
   191  1.9000000000000D+00 -2.5530611017840D-01  3.3244589194880D-01
   192  1.9100000000000D+00 -2.4878202705550D-01  3.0539170222255D-01
   193  1.9200000000000D+00 -2.4210405039147D-01  2.7918452370937D-01
   194  1.9300000000000D+00 -2.3529617069869D-01  2.5385532346714D-01
   195  1.9400000000000D+00 -2.2838146877716D-01  2.2943076986433D-01
   196  1.9500000000000D+00 -2.2138209569660D-01  2.0593335857694D-01
   197  1.9600000000000D+00 -2.1431928327389D-01  1.8338164766696D-01
   198  1.9700000000000D+00 -2.0721334714708D-01  1.6179045302654D-01
   199  1.9800000000000D+00 -2.0008371239939D-01  1.4117105531542D-01
   200  1.9900000000000D+00 -1.9294901543681D-01  1.2153167388128D-01
   201  2.0000000000000D+00 -1.8582702260726D-01  1.0287733196733D-01
   202  2.0100000000000D+00 -1.7873460904993D-01  8.5209900941102D-02
   203  2.0200000000000D+00 -1.7168775009249D-01  6.8528197812702D-02
   204  2.0300000000000D+00 -1.6470151860416D-01  5.2828102820334D-02
   205  2.0400000000000D+00 -1.5779007304773D-01  3.8102639148853D-02
   206  2.0500000000000D+00 -1.5096665780249D-01  2.4342093037650D-02
   207  2.0600000000000D+00 -1.4424360273782D-01  1.1534128605566D-02
   208  2.0700000000000D+00 -1.3763232672667D-01 -3.3608727124853D-04
   209  2.0800000000000D+00 -1.3114334395976D-01 -1.1285753730640D-02
   210  2.0900000000000D+00 -1.2478627301194D-01 -2.1334298905673D-02
   211  2.1000000000000D+00 -1.1856984863381D-01 -3.0503237685342D-02
   212  2.1100000000000D+00 -1.1250193589787D-01 -3.8816025138495D-02
   213  2.1200000000000D+00 -1.0658954679708D-01 -4.6297906241949D-02
   214  2.1300000000000D+00 -1.0083885897078D-01 -5.2975762559972D-02
   215  2.1400000000000D+00 -9.5255236463449D-02 -5.8877956637883D-02
   216  2.1500000000000D+00 -8.9843252387230D-02 -6.4034174964462D-02
   217  2.1600000000000D+00 -8.4606713280877D-02 -6.8475269679420D-02
   218  2.1700000000000D+00 -7.9548685028137D-02 -7.2233100500413D-02
   219  2.1800000000000D+00 -7.4671520184419D-02 -7.5340376850247D-02
   220  2.1900000000000D+00 -6.9976886557233D-02 -7.7830500933234D-02
   221  2.2000000000000D+00 -6.5465796820705D-02 -7.9737413134799D-02
   222  2.2100000000000D+00 -6.1138639143179D-02 -8.1095438984541D-02
   223  2.2200000000000D+00 -5.6995208520733D-02 -8.1939139671577D-02
   224  2.2300000000000D+00 -5.3034738728176D-02 -8.2303166139097D-02
   225  2.2400000000000D+00 -4.9255934882599D-02 -8.2222116292619D-02
   226  2.2500000000000D+00 -4.5657006135090D-02 -8.1730398243578D-02
   227  2.2600000000000D+00 -4.2235698725965D-02 -8.0862097501430D-02
   228  2.2700000000000D+00 -3.8989329086138D-02 -7.9650849815434D-02
   229  2.2800000000000D+00 -3.5914816726055D-02 -7.8129720886132D-02
   230  2.2900000000000D+00 -3.3008717174664D-02 -7.6331090957811D-02
   231  2.3000000000000D+00 -3.0267254422081D-02 -7.4286547236503D-02
   232  2.3100000000000D+00 -2.7686352921415D-02 -7.2026783439326D-02
   233  2.3200000000000D+00 -2.5261669350020D-02 -6.9581505021652D-02
   234  2.3300000000000D+00 -2.2988623347151D-02 -6.6979344201865D-02
   235  2.3400000000000D+00 -2.0862427756334D-02 -6.4247781491260D-02
   236  2.3500000000000D+00 -1.8878118184292D-02 -6.1413074505743D-02
   237  2.3600000000000D+00 -1.7030581305484D-02 -5.8500196843497D-02
   238  2.3700000000000D+00 -1.5314582542677D-02 -5.5532783349898D-02
   239  2.3800000000000D+00 -1.3724792668535D-02 -5.2533083912139D-02
   240  2.3900000000000D+00 -1.2255813077471D-02 -4.9521926789675D-02
   241  2.4000000000000D+00 -1.0902200296881D-02 -4.6518688286632D-02
   242  2.4100000000000D+00 -9.6584891106389D-03 -4.3541271673555D-02
   243  2.4200000000000D+00 -8.5192143574612D-03 -4.0606094756700D-02
   244  2.4300000000000D+00 -7.4789318695848D-03 -3.7728083559562D-02
   245  2.4400000000000D+00 -6.5322378070071D-03 -3.4920675450584D-02
   246  2.4500000000000D+00 -5.6737867292916D-03 -3.2195829793974D-02
   247  2.4600000000000D+00 -4.8983087485520D-03 -2.9564044292926D-02
   248  2.4700000000000D+00 -4.2006249679739D-03 -2.7034380405764D-02
   249  2.4800000000000D+00 -3.5756617562371D-03 -2.4614495043016D-02
   250  2.4900000000000D+00 -3.0184640837978D-03 -2.2310677352750D-02
   251  2.5000000000000D+00 -2.5242071489750D-03 -2.0127893632831D-02
   252  2.5100000000000D+00 -2.0882069543938D-03 -1.8069837256379D-02
   253  2.5200000000000D+00 -1.7059299650418D-03 -1.6138982913024D-02
   254  2.5300000000000D+00 -1.3730011703909D-03 -1.4336647509283D-02
   255  2.5400000000000D+00 -1.0852112150287D-03 -1.2663054843286D-02
   256  2.5500000000000D+00 -8.3852266428545D-04 -1.1117403688686D-02
   257  2.5600000000000D+00 -6.2907488747105D-04 -9.6979406419695D-03
   258  2.5700000000000D+00 -4.5318812440173D-04 -8.4020355512821D-03
   259  2.5800000000000D+00 -3.0736676863353D-04 -7.2262593527377D-03
   260  2.5900000000000D+00 -1.8830155566401D-04 -6.1664645043986D-03
   261  2.6000000000000D+00 -9.2871049929982D-05 -5.2178668187506D-03
   262  2.6100000000000D+00 -1.8142450286550D-05 -4.3751286511881D-03
   263  2.6200000000000D+00  3.8628373564725D-05 -3.6324424670457D-03
   264  2.6300000000000D+00  7.9997416641080D-05 -2.9836145455735D-03
   265  2.6400000000000D+00  1.0833364023211D-04 -2.4221489747849D-03
   266  2.6500000000000D+00  1.2582052859589D-04 -1.9413300412555D-03
   267  2.6600000000000D+00  1.3445805003362D-04 -1.5343032715694D-03
   268  2.6700000000000D+00  1.3606505919033D-04 -1.1941557093159D-03
   269  2.6800000000000D+00  1.3228191459191D-04 -9.1399318241921D-04
   270  2.6900000000000D+00  1.2457326209815D-04 -6.8701433096988D-04
   271  2.7000000000000D+00  1.1423112874933D-04 -5.0658283634753D-04
   272  2.7100000000000D+00  1.0237812993377D-04 -3.6629616640653D-04
   273  2.7200000000000D+00  8.9977478910676D-05 -2.6006119318990D-04
   274  2.7300000000000D+00  7.7852167612186D-05 -1.8218322442246D-04
   275  2.7400000000000D+00  6.6559783474882D-05 -1.2719160366229D-04
   276  2.7500000000000D+00  5.6563584445437D-05 -9.0191739552221D-05
   277  2.7600000000000D+00  4.7837764056865D-05 -6.6406056874220D-05
   278  2.7700000000000D+00  4.1187714205725D-05 -5.2835366613093D-05
   279  2.7800000000000D+00  3.6948383696497D-05 -4.6678179703314D-05
   280  2.7900000000000D+00  3.5780567218692D-05 -4.6248583758652D-05
   281  2.8000000000000D+00  3.6179344501120D-05 -4.8069122616638D-05
   282  2.8100000000000D+00  3.5425152143916D-05 -4.7917983926366D-05
   283  2.8200000000000D+00  3.1180342529875D-05 -4.2540509812175D-05
   284  2.8300000000000D+00  2.1699523649588D-05 -2.9827450871595D-05
   285  2.8400000000000D+00  1.0866358844438D-05 -1.5004598669776D-05
   286  2.8500000000000D+00  1.2245379149049D-06 -1.6954116482641D-06
   287  2.8600000000000D+00 -2.9322305418680D-06  4.0809749346121D-06
   288  2.8700000000000D+00 -3.2783530469614D-06  4.5750303228578D-06
   289  2.8800000000000D+00 -1.4311759655334D-06  2.0017164298679D-06
   290  2.8900000000000D+00  3.5215128174935D-07 -4.8319508968237D-07
   291  2.9000000000000D+00  7.7036951723409D-07 -1.0574198878406D-06
   292  2.9100000000000D+00  5.8595943399787D-07 -8.0453982906286D-07
   293  2.9200000000000D+00  2.4394009292505D-08 -3.3502424798210D-08
   294  2.9300000000000D+00 -7.5848759940490D-08  1.0325003781185D-07
   295  2.9400000000000D+00 -8.9983166168743D-08  1.2249066849138D-07
   296  2.9500000000000D+00 -4.1188727024619D-08  5.6068650641757D-08
   297  2.9600000000000D+00  0.0000000000000D+00  0.0000000000000D+00
   298  2.9700000000000D+00  0.0000000000000D+00  0.0000000000000D+00
   299  2.9800000000000D+00  0.0000000000000D+00  0.0000000000000D+00
   300  2.9900000000000D+00  0.0000000000000D+00  0.0000000000000D+00
   301  3.0000000000000D+00  0.0000000000000D+00  0.0000000000000D+00
   302  3.0100000000000D+00  0.0000000000000D+00  0.0000000000000D+00
   303  3.0200000000000D+00  0.0000000000000D+00  0.0000000000000D+00
   304  3.0300000000000D+00  0.0000000000000D+00  0.0000000000000D+00
   305  3.0400000000000D+00  0.0000000000000D+00  0.0000000000000D+00
   306  3.0500000000000D+00  0.0000000000000D+00  0.0000000000000D+00
   307  3.0600000000000D+00  0.0000000000000D+00  0.0000000000000D+00
   308  3.0700000000000D+00  0.0000000000000D+00  0.0000000000000D+00
   309  3.0800000000000D+00  0.0000000000000D+00  0.0000000000000D+00
   310  3.0900000000000D+00  0.0000000000000D+00  0.0000000000000D+00
   311  3.1000000000000D+00  0.0000000000000D+00  0.0000000000000D+00
   312  3.1100000000000D+00  0.0000000000000D+00  0.0000000000000D+00
   313  3.1200000000000D+00  0.0000000000000D+00  0.0000000000000D+00
   314  3.1300000000000D+00  0.0000000000000D+00  0.0000000000000D+00
   315  3.1400000000000D+00  0.0000000000000D+00  0.0000000000000D+00
   316  3.1500000000000D+00  0.0000000000000D+00  0.0000000000000D+00
   317  3.1600000000000D+00  0.0000000000000D+00  0.0000000000000D+00
   318  3.1700000000000D+00  0.0000000000000D+00  0.0000000000000D+00
   319  3.1800000000000D+00  0.0000000000000D+00  0.0000000000000D+00
   320  3.1900000000000D+00  0.0000000000000D+00  0.0000000000000D+00
   321  3.2000000000000D+00  0.0000000000000D+00  0.0000000000000D+00
   322  3.2100000000000D+00  0.0000000000000D+00  0.0000000000000D+00
   323  3.2200000000000D+00  0.0000000000000D+00  0.0000000000000D+00
   324  3.2300000000000D+00  0.0000000000000D+00  0.0000000000000D+00
   325  3.2400000000000D+00  0.0000000000000D+00  0.0000000000000D+00
   326  3.2500000000000D+00  0.0000000000000D+00  0.0000000000000D+00
   327  3.2600000000000D+00  0.0000000000000D+00  0.0000000000000D+00
   328  3.2700000000000D+00  0.0000000000000D+00  0.0000000000000D+00
   329  3.2800000000000D+00  0.0000000000000D+00  0.0000000000000D+00
   330  3.2900000000000D+00  0.0000000000000D+00  0.0000000000000D+00
   331  3.3000000000000D+00  0.0000000000000D+00  0.0000000000000D+00
   332  3.3100000000000D+00  0.0000000000000D+00  0.0000000000000D+00
   333  3.3200000000000D+00  0.0000000000000D+00  0.0000000000000D+00
   334  3.3300000000000D+00  0.0000000000000D+00  0.0000000000000D+00
   335  3.3400000000000D+00  0.0000000000000D+00  0.0000000000000D+00
   336  3.3500000000000D+00  0.0000000000000D+00  0.0000000000000D+00
   337  3.3600000000000D+00  0.0000000000000D+00  0.0000000000000D+00
   338  3.3700000000000D+00  0.0000000000000D+00  0.0000000000000D+00
   339  3.3800000000000D+00  0.0000000000000D+00  0.0000000000000D+00
   340  3.3900000000000D+00  0.0000000000000D+00  0.0000000000000D+00
   341  3.4000000000000D+00  0.0000000000000D+00  0.0000000000000D+00
   342  3.4100000000000D+00  0.0000000000000D+00  0.0000000000000D+00
   343  3.4200000000000D+00  0.0000000000000D+00  0.0000000000000D+00
   344  3.4300000000000D+00  0.0000000000000D+00  0.0000000000000D+00
   345  3.4400000000000D+00  0.0000000000000D+00  0.0000000000000D+00
   346  3.4500000000000D+00  0.0000000000000D+00  0.0000000000000D+00
   347  3.4600000000000D+00  0.0000000000000D+00  0.0000000000000D+00
   348  3.4700000000000D+00  0.0000000000000D+00  0.0000000000000D+00
   349  3.4800000000000D+00  0.0000000000000D+00  0.0000000000000D+00
   350  3.4900000000000D+00  0.0000000000000D+00  0.0000000000000D+00
   351  3.5000000000000D+00  0.0000000000000D+00  0.0000000000000D+00
   352  3.5100000000000D+00  0.0000000000000D+00  0.0000000000000D+00
   353  3.5200000000000D+00  0.0000000000000D+00  0.0000000000000D+00
   354  3.5300000000000D+00  0.0000000000000D+00  0.0000000000000D+00
   355  3.5400000000000D+00  0.0000000000000D+00  0.0000000000000D+00
   356  3.5500000000000D+00  0.0000000000000D+00  0.0000000000000D+00
   357  3.5600000000000D+00  0.0000000000000D+00  0.0000000000000D+00
   358  3.5700000000000D+00  0.0000000000000D+00  0.0000000000000D+00
   359  3.5800000000000D+00  0.0000000000000D+00  0.0000000000000D+00
   360  3.5900000000000D+00  0.0000000000000D+00  0.0000000000000D+00
   361  3.6000000000000D+00  0.0000000000000D+00  0.0000000000000D+00
   362  3.6100000000000D+00  0.0000000000000D+00  0.0000000000000D+00
   363  3.6200000000000D+00  0.0000000000000D+00  0.0000000000000D+00
   364  3.6300000000000D+00  0.0000000000000D+00  0.0000000000000D+00
   365  3.6400000000000D+00  0.0000000000000D+00  0.0000000000000D+00
   366  3.6500000000000D+00  0.0000000000000D+00  0.0000000000000D+00
   367  3.6600000000000D+00  0.0000000000000D+00  0.0000000000000D+00
   368  3.6700000000000D+00  0.0000000000000D+00  0.0000000000000D+00
   369  3.6800000000000D+00  0.0000000000000D+00  0.0000000000000D+00
   370  3.6900000000000D+00  0.0000000000000D+00  0.0000000000000D+00
   371  3.7000000000000D+00  0.0000000000000D+00  0.0000000000000D+00
   372  3.7100000000000D+00  0.0000000000000D+00  0.0000000000000D+00
   373  3.7200000000000D+00  0.0000000000000D+00  0.0000000000000D+00
   374  3.7300000000000D+00  0.0000000000000D+00  0.0000000000000D+00
   375  3.7400000000000D+00  0.0000000000000D+00  0.0000000000000D+00
   376  3.7500000000000D+00  0.0000000000000D+00  0.0000000000000D+00
   377  3.7600000000000D+00  0.0000000000000D+00  0.0000000000000D+00
   378  3.7700000000000D+00  0.0000000000000D+00  0.0000000000000D+00
   379  3.7800000000000D+00  0.0000000000000D+00  0.0000000000000D+00
   380  3.7900000000000D+00  0.0000000000000D+00  0.0000000000000D+00
   381  3.8000000000000D+00  0.0000000000000D+00  0.0000000000000D+00
   382  3.8100000000000D+00  0.0000000000000D+00  0.0000000000000D+00
   383  3.8200000000000D+00  0.0000000000000D+00  0.0000000000000D+00
   384  3.8300000000000D+00  0.0000000000000D+00  0.0000000000000D+00
   385  3.8400000000000D+00  0.0000000000000D+00  0.0000000000000D+00
   386  3.8500000000000D+00  0.0000000000000D+00  0.0000000000000D+00
   387  3.8600000000000D+00  0.0000000000000D+00  0.0000000000000D+00
   388  3.8700000000000D+00  0.0000000000000D+00  0.0000000000000D+00
   389  3.8800000000000D+00  0.0000000000000D+00  0.0000000000000D+00
   390  3.8900000000000D+00  0.0000000000000D+00  0.0000000000000D+00
   391  3.9000000000000D+00  0.0000000000000D+00  0.0000000000000D+00
   392  3.9100000000000D+00  0.0000000000000D+00  0.0000000000000D+00
   393  3.9200000000000D+00  0.0000000000000D+00  0.0000000000000D+00
   394  3.9300000000000D+00  0.0000000000000D+00  0.0000000000000D+00
   395  3.9400000000000D+00  0.0000000000000D+00  0.0000000000000D+00
   396  3.9500000000000D+00  0.0000000000000D+00  0.0000000000000D+00
   397  3.9600000000000D+00  0.0000000000000D+00  0.0000000000000D+00
   398  3.9700000000000D+00  0.0000000000000D+00  0.0000000000000D+00
   399  3.9800000000000D+00  0.0000000000000D+00  0.0000000000000D+00
   400  3.9900000000000D+00  0.0000000000000D+00  0.0000000000000D+00
   401  4.0000000000000D+00  0.0000000000000D+00  0.0000000000000D+00
   402  4.0100000000000D+00  0.0000000000000D+00  0.0000000000000D+00
   403  4.0200000000000D+00  0.0000000000000D+00  0.0000000000000D+00
   404  4.0300000000000D+00  0.0000000000000D+00  0.0000000000000D+00
   405  4.0400000000000D+00  0.0000000000000D+00  0.0000000000000D+00
   406  4.0500000000000D+00  0.0000000000000D+00  0.0000000000000D+00
   407  4.0600000000000D+00  0.0000000000000D+00  0.0000000000000D+00
   408  4.0700000000000D+00  0.0000000000000D+00  0.0000000000000D+00
   409  4.0800000000000D+00  0.0000000000000D+00  0.0000000000000D+00
   410  4.0900000000000D+00  0.0000000000000D+00  0.0000000000000D+00
   411  4.1000000000000D+00  0.0000000000000D+00  0.0000000000000D+00
   412  4.1100000000000D+00  0.0000000000000D+00  0.0000000000000D+00
   413  4.1200000000000D+00  0.0000000000000D+00  0.0000000000000D+00
   414  4.1300000000000D+00  0.0000000000000D+00  0.0000000000000D+00
   415  4.1400000000000D+00  0.0000000000000D+00  0.0000000000000D+00
   416  4.1500000000000D+00  0.0000000000000D+00  0.0000000000000D+00
   417  4.1600000000000D+00  0.0000000000000D+00  0.0000000000000D+00
   418  4.1700000000000D+00  0.0000000000000D+00  0.0000000000000D+00
   419  4.1800000000000D+00  0.0000000000000D+00  0.0000000000000D+00
   420  4.1900000000000D+00  0.0000000000000D+00  0.0000000000000D+00
   421  4.2000000000000D+00  0.0000000000000D+00  0.0000000000000D+00
   422  4.2100000000000D+00  0.0000000000000D+00  0.0000000000000D+00