Ta    ONCVPSP-3.3.1  r_core=   2.25368   2.17446   2.04856   3.00072
     73.0000     27.0000      210904    zatom,zion,pspd
     8      11   3     4   600     0    pspcod,pspxc,lmax,lloc,mmax,r2well
  5.99000000  0.00000000  0.00000000    rchrg fchrg qchrg
     2     4     4     2    nproj
     3     1           extension_switch
     4     4     4    nprojso
   0                        -1.1595357539072D-01  4.2525144857800D+00
     1  0.0000000000000D+00  7.7339523674169D-12 -4.3487435874567D-13
     2  1.0000000000000D-02  2.4140957993513D-02  5.6121958957570D-02
     3  2.0000000000000D-02  4.8221233874805D-02  1.1215794209274D-01
     4  3.0000000000000D-02  7.2180297397006D-02  1.6802212984933D-01
     5  4.0000000000000D-02  9.5957921912403D-02  2.2362901493778D-01
     6  5.0000000000000D-02  1.1949433584122D-01  2.7889355780398D-01
     7  6.0000000000000D-02  1.4273037373785D-01  3.3373134130107D-01
     8  7.0000000000000D-02  1.6560762681130D-01  3.8805872429893D-01
     9  8.0000000000000D-02  1.8806859274860D-01  4.4179299396676D-01
    10  9.0000000000000D-02  2.1005682468077D-01  4.9485251646436D-01
    11  1.0000000000000D-01  2.3151707911955D-01  5.4715688577892D-01
    12  1.1000000000000D-01  2.5239546268031D-01  5.9862707044458D-01
    13  1.2000000000000D-01  2.7263957739280D-01  6.4918555788339D-01
    14  1.3000000000000D-01  2.9219866438561D-01  6.9875649610748D-01
    15  1.4000000000000D-01  3.1102374571405D-01  7.4726583252374D-01
    16  1.5000000000000D-01  3.2906776408398D-01  7.9464144958422D-01
    17  1.6000000000000D-01  3.4628572020580D-01  8.4081329702746D-01
    18  1.7000000000000D-01  3.6263480749480D-01  8.8571352045825D-01
    19  1.8000000000000D-01  3.7807454381522D-01  9.2927658601630D-01
    20  1.9000000000000D-01  3.9256689994678D-01  9.7143940088723D-01
    21  2.0000000000000D-01  4.0607642443413D-01  1.0121414294129D+00
    22  2.1000000000000D-01  4.1857036446187D-01  1.0513248045619D+00
    23  2.2000000000000D-01  4.3001878238038D-01  1.0889344345262D+00
    24  2.3000000000000D-01  4.4039466749203D-01  1.1249181042137D+00
    25  2.4000000000000D-01  4.4967404269184D-01  1.1592265714127D+00
    26  2.5000000000000D-01  4.5783606554406D-01  1.1918136574106D+00
    27  2.6000000000000D-01  4.6486312336351D-01  1.2226363318561D+00
    28  2.7000000000000D-01  4.7074092186176D-01  1.2516547916582D+00
    29  2.8000000000000D-01  4.7545856690975D-01  1.2788325337298D+00
    30  2.9000000000000D-01  4.7900863896423D-01  1.3041364213847D+00
    31  3.0000000000000D-01  4.8138725970180D-01  1.3275367442120D+00
    32  3.1000000000000D-01  4.8259415040570D-01  1.3490072712589D+00
    33  3.2000000000000D-01  4.8263268165233D-01  1.3685252973635D+00
    34  3.3000000000000D-01  4.8150991385183D-01  1.3860716824926D+00
    35  3.4000000000000D-01  4.7923662820583D-01  1.4016308839501D+00
    36  3.5000000000000D-01  4.7582734765828D-01  1.4151909813336D+00
    37  3.6000000000000D-01  4.7130034743159D-01  1.4267436941322D+00
    38  3.7000000000000D-01  4.6567765476000D-01  1.4362843918732D+00
    39  3.8000000000000D-01  4.5898503745452D-01  1.4438120967361D+00
    40  3.9000000000000D-01  4.5125198096166D-01  1.4493294785736D+00
    41  4.0000000000000D-01  4.4251165360673D-01  1.4528428422918D+00
    42  4.1000000000000D-01  4.3280085974747D-01  1.4543621075598D+00
    43  4.2000000000000D-01  4.2215998059996D-01  1.4539007808355D+00
    44  4.3000000000000D-01  4.1063290253901D-01  1.4514759197148D+00
    45  4.4000000000000D-01  3.9826693271913D-01  1.4471080896268D+00
    46  4.5000000000000D-01  3.8511270190825D-01  1.4408213129183D+00
    47  4.6000000000000D-01  3.7122405447585D-01  1.4326430103908D+00
    48  4.7000000000000D-01  3.5665792552905D-01  1.4226039353707D+00
    49  4.8000000000000D-01  3.4147420524489D-01  1.4107381004158D+00
    50  4.9000000000000D-01  3.2573559050321D-01  1.3970826967797D+00
    51  5.0000000000000D-01  3.0950742398350D-01  1.3816780067778D+00
    52  5.1000000000000D-01  2.9285752094899D-01  1.3645673092158D+00
    53  5.2000000000000D-01  2.7585598400279D-01  1.3457967780666D+00
    54  5.3000000000000D-01  2.5857500616342D-01  1.3254153745979D+00
    55  5.4000000000000D-01  2.4108866267020D-01  1.3034747331748D+00
    56  5.5000000000000D-01  2.2347269199204D-01  1.2800290409823D+00
    57  5.6000000000000D-01  2.0580426657719D-01  1.2551349119292D+00
    58  5.7000000000000D-01  1.8816175394366D-01  1.2288512550195D+00
    59  5.8000000000000D-01  1.7062446877232D-01  1.2012391374893D+00
    60  5.9000000000000D-01  1.5327241672556D-01  1.1723616430320D+00
    61  6.0000000000000D-01  1.3618603077331D-01  1.1422837254474D+00
    62  6.1000000000000D-01  1.1944590086544D-01  1.1110720580683D+00
    63  6.2000000000000D-01  1.0313249784387D-01  1.0787948793362D+00
    64  6.3000000000000D-01  8.7325892540109D-02  1.0455218349089D+00
    65  6.4000000000000D-01  7.2105471051913D-02  1.0113238167005D+00
    66  6.5000000000000D-01  5.7549647238104D-02  9.7627279926281D-01
    67  6.6000000000000D-01  4.3735573511524D-02  9.4044167393536D-01
    68  6.7000000000000D-01  3.0738851046954D-02  9.0390408119341D-01
    69  6.8000000000000D-01  1.8633240552776D-02  8.6673424164008D-01
    70  6.9000000000000D-01  7.4903747824978D-03  8.2900678609163D-01
    71  7.0000000000000D-01 -2.6205260157912D-03  7.9079658521351D-01
    72  7.1000000000000D-01 -1.1632934497550D-02  7.5217857916894D-01
    73  7.2000000000000D-01 -1.9483291242263D-02  7.1322760774544D-01
    74  7.3000000000000D-01 -2.6111273165860D-02  6.7401824142628D-01
    75  7.4000000000000D-01 -3.1460054096618D-02  6.3462461387426D-01
    76  7.5000000000000D-01 -3.5476556292819D-02  5.9512025629359D-01
    77  7.6000000000000D-01 -3.8111691694790D-02  5.5557793413269D-01
    78  7.7000000000000D-01 -3.9320591724197D-02  5.1606948658592D-01
    79  7.8000000000000D-01 -3.9062824470091D-02  4.7666566934587D-01
    80  7.9000000000000D-01 -3.7302598134459D-02  4.3743600104965D-01
    81  8.0000000000000D-01 -3.4008949649991D-02  3.9844861385289D-01
    82  8.1000000000000D-01 -2.9155917428271D-02  3.5977010855398D-01
    83  8.2000000000000D-01 -2.2722697249688D-02  3.2146541467761D-01
    84  8.3000000000000D-01 -1.4693780363879D-02  2.8359765591247D-01
    85  8.4000000000000D-01 -5.0590729346183D-03  2.4622802128159D-01
    86  8.5000000000000D-01  6.1860039675789D-03  2.0941564240619D-01
    87  8.6000000000000D-01  1.9040434546081D-02  1.7321747720480D-01
    88  8.7000000000000D-01  3.3497549272308D-02  1.3768820034898D-01
    89  8.8000000000000D-01  4.9544987249095D-02  1.0288010077494D-01
    90  8.9000000000000D-01  6.7164680408622D-02  6.8842986527787D-02
    91  9.0000000000000D-01  8.6332859916423D-02  3.5624097190292D-02
    92  9.1000000000000D-01  1.0702008505686D-01  3.2680241235241D-03
    93  9.2000000000000D-01  1.2919129477328D-01 -2.8183361280091D-02
    94  9.3000000000000D-01  1.5280588193482D-01 -5.8690971157492D-02
    95  9.4000000000000D-01  1.7781779029593D-01 -8.8218556403453D-02
    96  9.5000000000000D-01  2.0417563400793D-01 -1.1673275344953D-01
    97  9.6000000000000D-01  2.3182283943433D-01 -1.4420312250493D-01
    98  9.7000000000000D-01  2.6069780891407D-01 -1.7060217720034D-01
    99  9.8000000000000D-01  2.9073410600797D-01 -1.9590540560518D-01
   100  9.9000000000000D-01  3.2186066165711D-01 -2.2009128261900D-01
   101  1.0000000000000D+00  3.5400200057575D-01 -2.4314127376710D-01
   102  1.0100000000000D+00  3.8707848709588D-01 -2.6503983046104D-01
   103  1.0200000000000D+00  4.2100658958266D-01 -2.8577437681310D-01
   104  1.0300000000000D+00  4.5569916243756D-01 -3.0533528812396D-01
   105  1.0400000000000D+00  4.9106574461261D-01 -3.2371586119148D-01
   106  1.0500000000000D+00  5.2701287346955D-01 -3.4091227661614D-01
   107  1.0600000000000D+00  5.6344441273086D-01 -3.5692355330644D-01
   108  1.0700000000000D+00  6.0026189318776D-01 -3.7175149541488D-01
   109  1.0800000000000D+00  6.3736486476200D-01 -3.8540063195816D-01
   110  1.0900000000000D+00  6.7465125844035D-01 -3.9787814940350D-01
   111  1.1000000000000D+00  7.1201775654683D-01 -4.0919381752343D-01
   112  1.1100000000000D+00  7.4936016975937D-01 -4.1935990884525D-01
   113  1.1200000000000D+00  7.8657381923456D-01 -4.2839111204042D-01
   114  1.1300000000000D+00  8.2355392216210D-01 -4.3630443961936D-01
   115  1.1400000000000D+00  8.6019597904052D-01 -4.4311913031525D-01
   116  1.1500000000000D+00  8.9639616094554D-01 -4.4885654655585D-01
   117  1.1600000000000D+00  9.3205169504977D-01 -4.5354006743582D-01
   118  1.1700000000000D+00  9.6706124664465D-01 -4.5719497761566D-01
   119  1.1800000000000D+00  1.0013252959227D+00 -4.5984835258446D-01
   120  1.1900000000000D+00  1.0347465077984D+00 -4.6152894073160D-01
   121  1.2000000000000D+00  1.0672300930545D+00 -4.6226704267875D-01
   122  1.2100000000000D+00  1.0986841591455D+00 -4.6209438833090D-01
   123  1.2200000000000D+00  1.1290200490334D+00 -4.6104401210616D-01
   124  1.2300000000000D+00  1.1581526664723D+00 -4.5915012680531D-01
   125  1.2400000000000D+00  1.1860007862128D+00 -4.5644799658307D-01
   126  1.2500000000000D+00  1.2124873476889D+00 -4.5297380947797D-01
   127  1.2600000000000D+00  1.2375397308165D+00 -4.4876454995281D-01
   128  1.2700000000000D+00  1.2610900125768D+00 -4.4385787189597D-01
   129  1.2800000000000D+00  1.2830752032247D+00 -4.3829197251818D-01
   130  1.2900000000000D+00  1.3034374610244D+00 -4.3210546757120D-01
   131  1.3000000000000D+00  1.3221242844587D+00 -4.2533726831188D-01
   132  1.3100000000000D+00  1.3390886811061D+00 -4.1802646060475D-01
   133  1.3200000000000D+00  1.3542893123936D+00 -4.1021218655215D-01
   134  1.3300000000000D+00  1.3676906135281D+00 -4.0193352903111D-01
   135  1.3400000000000D+00  1.3792628882040D+00 -3.9322939947219D-01
   136  1.3500000000000D+00  1.3889823776088D+00 -3.8413842922589D-01
   137  1.3600000000000D+00  1.3968313034778D+00 -3.7469886482991D-01
   138  1.3700000000000D+00  1.4027978852155D+00 -3.6494846744391D-01
   139  1.3800000000000D+00  1.4068763308936D+00 -3.5492441675492D-01
   140  1.3900000000000D+00  1.4090668024775D+00 -3.4466321956536D-01
   141  1.4000000000000D+00  1.4093753555400D+00 -3.3420062328708D-01
   142  1.4100000000000D+00  1.4078138537744D+00 -3.2357153456096D-01
   143  1.4200000000000D+00  1.4043998591461D+00 -3.1280994311896D-01
   144  1.4300000000000D+00  1.3991564981115D+00 -3.0194885108496D-01
   145  1.4400000000000D+00  1.3921123049577D+00 -2.9102020779019D-01
   146  1.4500000000000D+00  1.3833010432011D+00 -2.8005485019538D-01
   147  1.4600000000000D+00  1.3727615059942D+00 -2.6908244901835D-01
   148  1.4700000000000D+00  1.3605372970767D+00 -2.5813146052805D-01
   149  1.4800000000000D+00  1.3466765932045D+00 -2.4722908410876D-01
   150  1.4900000000000D+00  1.3312318898809D+00 -2.3640122548693D-01
   151  1.5000000000000D+00  1.3142597316613D+00 -2.2567246564208D-01
   152  1.5100000000000D+00  1.2958204287885D+00 -2.1506603531089D-01
   153  1.5200000000000D+00  1.2759777618994D+00 -2.0460379497684D-01
   154  1.5300000000000D+00  1.2547986764556D+00 -1.9430622028945D-01
   155  1.5400000000000D+00  1.2323529689914D+00 -1.8419239268456D-01
   156  1.5500000000000D+00  1.2087129668171D+00 -1.7427999516803D-01
   157  1.5600000000000D+00  1.1839532034178D+00 -1.6458531296065D-01
   158  1.5700000000000D+00  1.1581500913202D+00 -1.5512323892625D-01
   159  1.5800000000000D+00  1.1313815946199D+00 -1.4590728347525D-01
   160  1.5900000000000D+00  1.1037269030987D+00 -1.3694958878941D-01
   161  1.6000000000000D+00  1.0752661100575D+00 -1.2826094707538D-01
   162  1.6100000000000D+00  1.0460798958291D+00 -1.1985082262431D-01
   163  1.6200000000000D+00  1.0162492190882D+00 -1.1172737739583D-01
   164  1.6300000000000D+00  9.8585501780485D-01 -1.0389749985630D-01
   165  1.6400000000000D+00  9.5497792201116D-01 -9.6366836790098D-02
   166  1.6500000000000D+00  9.2369797996961D-01 -8.9139827790066D-02
   167  1.6600000000000D+00  8.9209440000796D-01 -8.2219742136048D-02
   168  1.6700000000000D+00  8.6024530923704D-01 -7.5608717766756D-02
   169  1.6800000000000D+00  8.2822753152672D-01 -6.9307802035314D-02
   170  1.6900000000000D+00  7.9611638550804D-01 -6.3316993973130D-02
   171  1.7000000000000D+00  7.6398550506303D-01 -5.7635287729016D-02
   172  1.7100000000000D+00  7.3190668259947D-01 -5.2260716942217D-02
   173  1.7200000000000D+00  6.9994973757979D-01 -4.7190399694453D-02
   174  1.7300000000000D+00  6.6818241017728D-01 -4.2420583840194D-02
   175  1.7400000000000D+00  6.3667028239248D-01 -3.7946692348460D-02
   176  1.7500000000000D+00  6.0547672620556D-01 -3.3763368492058D-02
   177  1.7600000000000D+00  5.7466288074309D-01 -2.9864520526368D-02
   178  1.7700000000000D+00  5.4428765795255D-01 -2.6243365713645D-02
   179  1.7800000000000D+00  5.1440777811353D-01 -2.2892473376838D-02
   180  1.7900000000000D+00  4.8507783489659D-01 -1.9803806828063D-02
   181  1.8000000000000D+00  4.5635039777211D-01 -1.6968763563028D-02
   182  1.8100000000000D+00  4.2827611635538D-01 -1.4378215327057D-02
   183  1.8200000000000D+00  4.0090389309125D-01 -1.2022544452701D-02
   184  1.8300000000000D+00  3.7428113196935D-01 -9.8916760516392D-03
   185  1.8400000000000D+00  3.4845355447260D-01 -7.9751326630340D-03
   186  1.8500000000000D+00  3.2346583142407D-01 -6.2620428699049D-03
   187  1.8600000000000D+00  2.9936317662311D-01 -4.7411064840557D-03
   188  1.8700000000000D+00  2.7618845010460D-01 -3.4007822903999D-03
   189  1.8800000000000D+00  2.5398073784994D-01 -2.2293969515389D-03
   190  1.8900000000000D+00  2.3277391116383D-01 -1.2152743825751D-03
   191  1.9000000000000D+00  2.1259420612752D-01 -3.4691459410992D-04
   192  1.9100000000000D+00  1.9345976593518D-01  3.8692804370946D-04
   193  1.9200000000000D+00  1.7538179579277D-01  9.9724709498724D-04
   194  1.9300000000000D+00  1.5836519902188D-01  1.4947604711850D-03
   195  1.9400000000000D+00  1.4240835204892D-01  1.8898518749145D-03
   196  1.9500000000000D+00  1.2750372442947D-01  2.1925534469471D-03
   197  1.9600000000000D+00  1.1363815688891D-01  2.4125151985302D-03
   198  1.9700000000000D+00  1.0079326854748D-01  2.5589830816005D-03
   199  1.9800000000000D+00  8.8945858115756D-02  2.6407795218605D-03
   200  1.9900000000000D+00  7.8068316481379D-02  2.6662870403770D-03
   201  2.0000000000000D+00  6.8129048456145D-02  2.6434348300365D-03
   202  2.0100000000000D+00  5.9092902144882D-02  2.5796883260428D-03
   203  2.0200000000000D+00  5.0921602643658D-02  2.4820412691175D-03
   204  2.0300000000000D+00  4.3574188428351D-02  2.3570104727440D-03
   205  2.0400000000000D+00  3.7007447932025D-02  2.2106327958696D-03
   206  2.0500000000000D+00  3.1176353656510D-02  2.0484643065701D-03
   207  2.0600000000000D+00  2.6034491660633D-02  1.8755814128929D-03
   208  2.0700000000000D+00  2.1534484863088D-02  1.6965837287375D-03
   209  2.0800000000000D+00  1.7628405730086D-02  1.5155985047291D-03
   210  2.0900000000000D+00  1.4268179480657D-02  1.3362864690881D-03
   211  2.1000000000000D+00  1.1405972172130D-02  1.1618487817353D-03
   212  2.1100000000000D+00  8.9945636193022D-03  9.9503499132888D-04
   213  2.1200000000000D+00  6.9877042448374D-03  8.3815186666423D-04
   214  2.1300000000000D+00  5.3404493134396D-03  6.9307264889790D-04
   215  2.1400000000000D+00  4.0094759105129D-03  5.6124699600677D-04
   216  2.1500000000000D+00  2.9533741507489D-03  4.4371099164216D-04
   217  2.1600000000000D+00  2.1329144755952D-03  3.4109729387931D-04
   218  2.1700000000000D+00  1.5112925212411D-03  2.5364549198382D-04
   219  2.1800000000000D+00  1.0545844863962D-03  1.8120493488477D-04
   220  2.1900000000000D+00  7.3113686309669D-04  1.2326744137022D-04
   221  2.2000000000000D+00  5.1211766543916D-04  7.8965393801881D-05
   222  2.2100000000000D+00  3.6980386354636D-04  4.6972782120038D-05
   223  2.2200000000000D+00  2.8870667655647D-04  2.5851094526005D-05
   224  2.2300000000000D+00  2.5530315439214D-04  1.3848051276201D-05
   225  2.2400000000000D+00  2.5049434188620D-04  8.6241833475423D-06
   226  2.2500000000000D+00  2.3548352885568D-04  6.7077476836069D-06
   227  2.2600000000000D+00  1.7615765945398D-04  4.8877616877610D-06
   228  2.2700000000000D+00  8.6467380693249D-05  2.4372876982858D-06
   229  2.2800000000000D+00  4.7723133834471D-06  1.3924590761229D-07
   230  2.2900000000000D+00 -2.2639184508177D-05 -5.7210495202632D-07
   231  2.3000000000000D+00 -1.6198445067349D-05 -4.0892293570635D-07
   232  2.3100000000000D+00  1.3961340569489D-06  3.2824363614178D-08
   233  2.3200000000000D+00  5.1934865541580D-06  1.2067724322869D-07
   234  2.3300000000000D+00  2.9017720474211D-06  6.6776178867101D-08
   235  2.3400000000000D+00 -3.2348542223325D-07 -9.1329232840454D-09
   236  2.3500000000000D+00 -6.2671892722981D-07 -1.7694076733145D-08
   237  2.3600000000000D+00 -2.4691594582079D-07 -6.9711468764821D-09
   238  2.3700000000000D+00  0.0000000000000D+00  0.0000000000000D+00
   239  2.3800000000000D+00  0.0000000000000D+00  0.0000000000000D+00
   240  2.3900000000000D+00  0.0000000000000D+00  0.0000000000000D+00
   241  2.4000000000000D+00  0.0000000000000D+00  0.0000000000000D+00
   242  2.4100000000000D+00  0.0000000000000D+00  0.0000000000000D+00
   243  2.4200000000000D+00  0.0000000000000D+00  0.0000000000000D+00
   244  2.4300000000000D+00  0.0000000000000D+00  0.0000000000000D+00
   245  2.4400000000000D+00  0.0000000000000D+00  0.0000000000000D+00
   246  2.4500000000000D+00  0.0000000000000D+00  0.0000000000000D+00
   247  2.4600000000000D+00  0.0000000000000D+00  0.0000000000000D+00
   248  2.4700000000000D+00  0.0000000000000D+00  0.0000000000000D+00
   249  2.4800000000000D+00  0.0000000000000D+00  0.0000000000000D+00
   250  2.4900000000000D+00  0.0000000000000D+00  0.0000000000000D+00
   251  2.5000000000000D+00  0.0000000000000D+00  0.0000000000000D+00
   252  2.5100000000000D+00  0.0000000000000D+00  0.0000000000000D+00
   253  2.5200000000000D+00  0.0000000000000D+00  0.0000000000000D+00
   254  2.5300000000000D+00  0.0000000000000D+00  0.0000000000000D+00
   255  2.5400000000000D+00  0.0000000000000D+00  0.0000000000000D+00
   256  2.5500000000000D+00  0.0000000000000D+00  0.0000000000000D+00
   257  2.5600000000000D+00  0.0000000000000D+00  0.0000000000000D+00
   258  2.5700000000000D+00  0.0000000000000D+00  0.0000000000000D+00
   259  2.5800000000000D+00  0.0000000000000D+00  0.0000000000000D+00
   260  2.5900000000000D+00  0.0000000000000D+00  0.0000000000000D+00
   261  2.6000000000000D+00  0.0000000000000D+00  0.0000000000000D+00
   262  2.6100000000000D+00  0.0000000000000D+00  0.0000000000000D+00
   263  2.6200000000000D+00  0.0000000000000D+00  0.0000000000000D+00
   264  2.6300000000000D+00  0.0000000000000D+00  0.0000000000000D+00
   265  2.6400000000000D+00  0.0000000000000D+00  0.0000000000000D+00
   266  2.6500000000000D+00  0.0000000000000D+00  0.0000000000000D+00
   267  2.6600000000000D+00  0.0000000000000D+00  0.0000000000000D+00
   268  2.6700000000000D+00  0.0000000000000D+00  0.0000000000000D+00
   269  2.6800000000000D+00  0.0000000000000D+00  0.0000000000000D+00
   270  2.6900000000000D+00  0.0000000000000D+00  0.0000000000000D+00
   271  2.7000000000000D+00  0.0000000000000D+00  0.0000000000000D+00
   272  2.7100000000000D+00  0.0000000000000D+00  0.0000000000000D+00
   273  2.7200000000000D+00  0.0000000000000D+00  0.0000000000000D+00
   274  2.7300000000000D+00  0.0000000000000D+00  0.0000000000000D+00
   275  2.7400000000000D+00  0.0000000000000D+00  0.0000000000000D+00
   276  2.7500000000000D+00  0.0000000000000D+00  0.0000000000000D+00
   277  2.7600000000000D+00  0.0000000000000D+00  0.0000000000000D+00
   278  2.7700000000000D+00  0.0000000000000D+00  0.0000000000000D+00
   279  2.7800000000000D+00  0.0000000000000D+00  0.0000000000000D+00
   280  2.7900000000000D+00  0.0000000000000D+00  0.0000000000000D+00
   281  2.8000000000000D+00  0.0000000000000D+00  0.0000000000000D+00
   282  2.8100000000000D+00  0.0000000000000D+00  0.0000000000000D+00
   283  2.8200000000000D+00  0.0000000000000D+00  0.0000000000000D+00
   284  2.8300000000000D+00  0.0000000000000D+00  0.0000000000000D+00
   285  2.8400000000000D+00  0.0000000000000D+00  0.0000000000000D+00
   286  2.8500000000000D+00  0.0000000000000D+00  0.0000000000000D+00
   287  2.8600000000000D+00  0.0000000000000D+00  0.0000000000000D+00
   288  2.8700000000000D+00  0.0000000000000D+00  0.0000000000000D+00
   289  2.8800000000000D+00  0.0000000000000D+00  0.0000000000000D+00
   290  2.8900000000000D+00  0.0000000000000D+00  0.0000000000000D+00
   291  2.9000000000000D+00  0.0000000000000D+00  0.0000000000000D+00
   292  2.9100000000000D+00  0.0000000000000D+00  0.0000000000000D+00
   293  2.9200000000000D+00  0.0000000000000D+00  0.0000000000000D+00
   294  2.9300000000000D+00  0.0000000000000D+00  0.0000000000000D+00
   295  2.9400000000000D+00  0.0000000000000D+00  0.0000000000000D+00
   296  2.9500000000000D+00  0.0000000000000D+00  0.0000000000000D+00
   297  2.9600000000000D+00  0.0000000000000D+00  0.0000000000000D+00
   298  2.9700000000000D+00  0.0000000000000D+00  0.0000000000000D+00
   299  2.9800000000000D+00  0.0000000000000D+00  0.0000000000000D+00
   300  2.9900000000000D+00  0.0000000000000D+00  0.0000000000000D+00
   301  3.0000000000000D+00  0.0000000000000D+00  0.0000000000000D+00
   302  3.0100000000000D+00  0.0000000000000D+00  0.0000000000000D+00
   303  3.0200000000000D+00  0.0000000000000D+00  0.0000000000000D+00
   304  3.0300000000000D+00  0.0000000000000D+00  0.0000000000000D+00
   305  3.0400000000000D+00  0.0000000000000D+00  0.0000000000000D+00
   306  3.0500000000000D+00  0.0000000000000D+00  0.0000000000000D+00
   307  3.0600000000000D+00  0.0000000000000D+00  0.0000000000000D+00
   308  3.0700000000000D+00  0.0000000000000D+00  0.0000000000000D+00
   309  3.0800000000000D+00  0.0000000000000D+00  0.0000000000000D+00
   310  3.0900000000000D+00  0.0000000000000D+00  0.0000000000000D+00
   311  3.1000000000000D+00  0.0000000000000D+00  0.0000000000000D+00
   312  3.1100000000000D+00  0.0000000000000D+00  0.0000000000000D+00
   313  3.1200000000000D+00  0.0000000000000D+00  0.0000000000000D+00
   314  3.1300000000000D+00  0.0000000000000D+00  0.0000000000000D+00
   315  3.1400000000000D+00  0.0000000000000D+00  0.0000000000000D+00
   316  3.1500000000000D+00  0.0000000000000D+00  0.0000000000000D+00
   317  3.1600000000000D+00  0.0000000000000D+00  0.0000000000000D+00
   318  3.1700000000000D+00  0.0000000000000D+00  0.0000000000000D+00
   319  3.1800000000000D+00  0.0000000000000D+00  0.0000000000000D+00
   320  3.1900000000000D+00  0.0000000000000D+00  0.0000000000000D+00
   321  3.2000000000000D+00  0.0000000000000D+00  0.0000000000000D+00
   322  3.2100000000000D+00  0.0000000000000D+00  0.0000000000000D+00
   323  3.2200000000000D+00  0.0000000000000D+00  0.0000000000000D+00
   324  3.2300000000000D+00  0.0000000000000D+00  0.0000000000000D+00
   325  3.2400000000000D+00  0.0000000000000D+00  0.0000000000000D+00
   326  3.2500000000000D+00  0.0000000000000D+00  0.0000000000000D+00
   327  3.2600000000000D+00  0.0000000000000D+00  0.0000000000000D+00
   328  3.2700000000000D+00  0.0000000000000D+00  0.0000000000000D+00
   329  3.2800000000000D+00  0.0000000000000D+00  0.0000000000000D+00
   330  3.2900000000000D+00  0.0000000000000D+00  0.0000000000000D+00
   331  3.3000000000000D+00  0.0000000000000D+00  0.0000000000000D+00
   332  3.3100000000000D+00  0.0000000000000D+00  0.0000000000000D+00
   333  3.3200000000000D+00  0.0000000000000D+00  0.0000000000000D+00
   334  3.3300000000000D+00  0.0000000000000D+00  0.0000000000000D+00
   335  3.3400000000000D+00  0.0000000000000D+00  0.0000000000000D+00
   336  3.3500000000000D+00  0.0000000000000D+00  0.0000000000000D+00
   337  3.3600000000000D+00  0.0000000000000D+00  0.0000000000000D+00
   338  3.3700000000000D+00  0.0000000000000D+00  0.0000000000000D+00
   339  3.3800000000000D+00  0.0000000000000D+00  0.0000000000000D+00
   340  3.3900000000000D+00  0.0000000000000D+00  0.0000000000000D+00
   341  3.4000000000000D+00  0.0000000000000D+00  0.0000000000000D+00
   342  3.4100000000000D+00  0.0000000000000D+00  0.0000000000000D+00
   343  3.4200000000000D+00  0.0000000000000D+00  0.0000000000000D+00
   344  3.4300000000000D+00  0.0000000000000D+00  0.0000000000000D+00
   345  3.4400000000000D+00  0.0000000000000D+00  0.0000000000000D+00
   346  3.4500000000000D+00  0.0000000000000D+00  0.0000000000000D+00
   347  3.4600000000000D+00  0.0000000000000D+00  0.0000000000000D+00
   348  3.4700000000000D+00  0.0000000000000D+00  0.0000000000000D+00
   349  3.4800000000000D+00  0.0000000000000D+00  0.0000000000000D+00
   350  3.4900000000000D+00  0.0000000000000D+00  0.0000000000000D+00
   351  3.5000000000000D+00  0.0000000000000D+00  0.0000000000000D+00
   352  3.5100000000000D+00  0.0000000000000D+00  0.0000000000000D+00
   353  3.5200000000000D+00  0.0000000000000D+00  0.0000000000000D+00
   354  3.5300000000000D+00  0.0000000000000D+00  0.0000000000000D+00
   355  3.5400000000000D+00  0.0000000000000D+00  0.0000000000000D+00
   356  3.5500000000000D+00  0.0000000000000D+00  0.0000000000000D+00
   357  3.5600000000000D+00  0.0000000000000D+00  0.0000000000000D+00
   358  3.5700000000000D+00  0.0000000000000D+00  0.0000000000000D+00
   359  3.5800000000000D+00  0.0000000000000D+00  0.0000000000000D+00
   360  3.5900000000000D+00  0.0000000000000D+00  0.0000000000000D+00
   361  3.6000000000000D+00  0.0000000000000D+00  0.0000000000000D+00
   362  3.6100000000000D+00  0.0000000000000D+00  0.0000000000000D+00
   363  3.6200000000000D+00  0.0000000000000D+00  0.0000000000000D+00
   364  3.6300000000000D+00  0.0000000000000D+00  0.0000000000000D+00
   365  3.6400000000000D+00  0.0000000000000D+00  0.0000000000000D+00
   366  3.6500000000000D+00  0.0000000000000D+00  0.0000000000000D+00
   367  3.6600000000000D+00  0.0000000000000D+00  0.0000000000000D+00
   368  3.6700000000000D+00  0.0000000000000D+00  0.0000000000000D+00
   369  3.6800000000000D+00  0.0000000000000D+00  0.0000000000000D+00
   370  3.6900000000000D+00  0.0000000000000D+00  0.0000000000000D+00
   371  3.7000000000000D+00  0.0000000000000D+00  0.0000000000000D+00
   372  3.7100000000000D+00  0.0000000000000D+00  0.0000000000000D+00
   373  3.7200000000000D+00  0.0000000000000D+00  0.0000000000000D+00
   374  3.7300000000000D+00  0.0000000000000D+00  0.0000000000000D+00
   375  3.7400000000000D+00  0.0000000000000D+00  0.0000000000000D+00
   376  3.7500000000000D+00  0.0000000000000D+00  0.0000000000000D+00
   377  3.7600000000000D+00  0.0000000000000D+00  0.0000000000000D+00
   378  3.7700000000000D+00  0.0000000000000D+00  0.0000000000000D+00
   379  3.7800000000000D+00  0.0000000000000D+00  0.0000000000000D+00
   380  3.7900000000000D+00  0.0000000000000D+00  0.0000000000000D+00
   381  3.8000000000000D+00  0.0000000000000D+00  0.0000000000000D+00
   382  3.8100000000000D+00  0.0000000000000D+00  0.0000000000000D+00
   383  3.8200000000000D+00  0.0000000000000D+00  0.0000000000000D+00
   384  3.8300000000000D+00  0.0000000000000D+00  0.0000000000000D+00
   385  3.8400000000000D+00  0.0000000000000D+00  0.0000000000000D+00
   386  3.8500000000000D+00  0.0000000000000D+00  0.0000000000000D+00
   387  3.8600000000000D+00  0.0000000000000D+00  0.0000000000000D+00
   388  3.8700000000000D+00  0.0000000000000D+00  0.0000000000000D+00
   389  3.8800000000000D+00  0.0000000000000D+00  0.0000000000000D+00
   390  3.8900000000000D+00  0.0000000000000D+00  0.0000000000000D+00
   391  3.9000000000000D+00  0.0000000000000D+00  0.0000000000000D+00
   392  3.9100000000000D+00  0.0000000000000D+00  0.0000000000000D+00
   393  3.9200000000000D+00  0.0000000000000D+00  0.0000000000000D+00
   394  3.9300000000000D+00  0.0000000000000D+00  0.0000000000000D+00
   395  3.9400000000000D+00  0.0000000000000D+00  0.0000000000000D+00
   396  3.9500000000000D+00  0.0000000000000D+00  0.0000000000000D+00
   397  3.9600000000000D+00  0.0000000000000D+00  0.0000000000000D+00
   398  3.9700000000000D+00  0.0000000000000D+00  0.0000000000000D+00
   399  3.9800000000000D+00  0.0000000000000D+00  0.0000000000000D+00
   400  3.9900000000000D+00  0.0000000000000D+00  0.0000000000000D+00
   401  4.0000000000000D+00  0.0000000000000D+00  0.0000000000000D+00
   402  4.0100000000000D+00  0.0000000000000D+00  0.0000000000000D+00
   403  4.0200000000000D+00  0.0000000000000D+00  0.0000000000000D+00
   404  4.0300000000000D+00  0.0000000000000D+00  0.0000000000000D+00
   405  4.0400000000000D+00  0.0000000000000D+00  0.0000000000000D+00
   406  4.0500000000000D+00  0.0000000000000D+00  0.0000000000000D+00
   407  4.0600000000000D+00  0.0000000000000D+00  0.0000000000000D+00
   408  4.0700000000000D+00  0.0000000000000D+00  0.0000000000000D+00
   409  4.0800000000000D+00  0.0000000000000D+00  0.0000000000000D+00
   410  4.0900000000000D+00  0.0000000000000D+00  0.0000000000000D+00
   411  4.1000000000000D+00  0.0000000000000D+00  0.0000000000000D+00
   412  4.1100000000000D+00  0.0000000000000D+00  0.0000000000000D+00
   413  4.1200000000000D+00  0.0000000000000D+00  0.0000000000000D+00
   414  4.1300000000000D+00  0.0000000000000D+00  0.0000000000000D+00
   415  4.1400000000000D+00  0.0000000000000D+00  0.0000000000000D+00
   416  4.1500000000000D+00  0.0000000000000D+00  0.0000000000000D+00
   417  4.1600000000000D+00  0.0000000000000D+00  0.0000000000000D+00
   418  4.1700000000000D+00  0.0000000000000D+00  0.0000000000000D+00
   419  4.1800000000000D+00  0.0000000000000D+00  0.0000000000000D+00
   420  4.1900000000000D+00  0.0000000000000D+00  0.0000000000000D+00
   421  4.2000000000000D+00  0.0000000000000D+00  0.0000000000000D+00
   422  4.2100000000000D+00  0.0000000000000D+00  0.0000000000000D+00