Te    ONCVPSP-3.3.1  r_core=   2.49231   3.16383   2.80807
     52.0000     16.0000      210904    zatom,zion,pspd
     8      11   2     4   600     0    pspcod,pspxc,lmax,lloc,mmax,r2well
  5.99000000  0.00000000  0.00000000    rchrg fchrg qchrg
     2     4     2     0    nproj
     3     1           extension_switch
     4     3     0    nprojso
   0                         1.3672943995170D+00  6.3054226901955D+00
     1  0.0000000000000D+00 -2.0884044493741D-11  3.4506147938984D-12
     2  1.0000000000000D-02  2.4776093832438D-02  1.1925409916082D-02
     3  2.0000000000000D-02  4.9441337762342D-02  2.3878480451754D-02
     4  3.0000000000000D-02  7.3885327752883D-02  3.5886757049455D-02
     5  4.0000000000000D-02  9.7998549876156D-02  4.7977555144632D-02
     6  5.0000000000000D-02  1.2167282131668D-01  6.0177846029625D-02
     7  6.0000000000000D-02  1.4480172652843D-01  7.2514143756001D-02
     8  7.0000000000000D-02  1.6728104695430D-01  8.5012393417451D-02
     9  8.0000000000000D-02  1.8900918273790D-01  9.7697861151916D-02
    10  9.0000000000000D-02  2.0988756488334D-01  1.1059502619733D-01
    11  1.0000000000000D-01  2.2982105635007D-01  1.2372747533015D-01
    12  1.1000000000000D-01  2.4871834060548D-01  1.3711780000999D-01
    13  1.2000000000000D-01  2.6649229619940D-01  1.5078749654667D-01
    14  1.3000000000000D-01  2.8306035596995D-01  1.6475686959842D-01
    15  1.4000000000000D-01  2.9834484954115D-01  1.7904493930168D-01
    16  1.5000000000000D-01  3.1227332782741D-01  1.9366935232326D-01
    17  1.6000000000000D-01  3.2477886831966D-01  2.0864629711600D-01
    18  1.7000000000000D-01  3.3580035999190D-01  2.2399042364799D-01
    19  1.8000000000000D-01  3.4528276673453D-01  2.3971476786388D-01
    20  1.9000000000000D-01  3.5317736829316D-01  2.5583068112433D-01
    21  2.0000000000000D-01  3.5944197776702D-01  2.7234776485699D-01
    22  2.1000000000000D-01  3.6404113480053D-01  2.8927381063818D-01
    23  2.2000000000000D-01  3.6694627368423D-01  3.0661474591018D-01
    24  2.3000000000000D-01  3.6813586566707D-01  3.2437458552420D-01
    25  2.4000000000000D-01  3.6759553487079D-01  3.4255538928291D-01
    26  2.5000000000000D-01  3.6531814728846D-01  3.6115722564059D-01
    27  2.6000000000000D-01  3.6130387244304D-01  3.8017814170175D-01
    28  2.7000000000000D-01  3.5556021737768D-01  3.9961413964190D-01
    29  2.8000000000000D-01  3.4810203274721D-01  4.1945915965608D-01
    30  2.9000000000000D-01  3.3895149087943D-01  4.3970506952265D-01
    31  3.0000000000000D-01  3.2813803577537D-01  4.6034166085087D-01
    32  3.1000000000000D-01  3.1569830511886D-01  4.8135665206180D-01
    33  3.2000000000000D-01  3.0167602446790D-01  5.0273569813263D-01
    34  3.3000000000000D-01  2.8612187390235D-01  5.2446240711470D-01
    35  3.4000000000000D-01  2.6909332750425D-01  5.4651836341568D-01
    36  3.5000000000000D-01  2.5065446614929D-01  5.6888315781608D-01
    37  3.6000000000000D-01  2.3087576418788D-01  5.9153442417023D-01
    38  3.7000000000000D-01  2.0983385069438D-01  6.1444788272123D-01
    39  3.8000000000000D-01  1.8761124606096D-01  6.3759738993940D-01
    40  3.9000000000000D-01  1.6429607480824D-01  6.6095499477318D-01
    41  4.0000000000000D-01  1.3998175557910D-01  6.8449100118144D-01
    42  4.1000000000000D-01  1.1476666937269D-01  7.0817403679592D-01
    43  4.2000000000000D-01  8.8753807164122D-02  7.3197112754318D-01
    44  4.3000000000000D-01  6.2050398139425D-02  7.5584777803527D-01
    45  4.4000000000000D-01  3.4767519856692D-02  7.7976805751998D-01
    46  4.5000000000000D-01  7.0196917206292D-03  8.0369469116214D-01
    47  4.6000000000000D-01 -2.1075546769673D-02  8.2758915640977D-01
    48  4.7000000000000D-01 -4.9398071472861D-02  8.5141178418072D-01
    49  4.8000000000000D-01 -7.7825621167879D-02  8.7512186458889D-01
    50  4.9000000000000D-01 -1.0623425558090D-01  8.9867775691245D-01
    51  5.0000000000000D-01 -1.3449882217925D-01  9.2203700349086D-01
    52  5.1000000000000D-01 -1.6249342999025D-01  9.4515644722288D-01
    53  5.2000000000000D-01 -1.9009192866354D-01  9.6799235232380D-01
    54  5.3000000000000D-01 -2.1716839096406D-01  9.9050052798687D-01
    55  5.4000000000000D-01 -2.4359759685637D-01  1.0126364545823D+00
    56  5.5000000000000D-01 -2.6925551732343D-01  1.0343554120160D+00
    57  5.6000000000000D-01 -2.9401979605075D-01  1.0556126098603D+00
    58  5.7000000000000D-01 -3.1777022710306D-01  1.0763633188603D+00
    59  5.8000000000000D-01 -3.4038922672386D-01  1.0965630034126D+00
    60  5.9000000000000D-01 -3.6176229739855D-01  1.1161674546051D+00
    61  6.0000000000000D-01 -3.8177848234041D-01  1.1351329234036D+00
    62  6.1000000000000D-01 -4.0033080858418D-01  1.1534162535669D+00
    63  6.2000000000000D-01 -4.1731671690513D-01  1.1709750138671D+00
    64  6.3000000000000D-01 -4.3263847682288D-01  1.1877676291964D+00
    65  6.4000000000000D-01 -4.4620358499632D-01  1.2037535101354D+00
    66  6.5000000000000D-01 -4.5792514537251D-01  1.2188931805649D+00
    67  6.6000000000000D-01 -4.6772222951471D-01  1.2331484029055D+00
    68  6.7000000000000D-01 -4.7552021560380D-01  1.2464823005704D+00
    69  6.8000000000000D-01 -4.8125110468483D-01  1.2588594772295D+00
    70  6.9000000000000D-01 -4.8485381281242D-01  1.2702461324833D+00
    71  7.0000000000000D-01 -4.8627443783868D-01  1.2806101735605D+00
    72  7.1000000000000D-01 -4.8546649968183D-01  1.2899213226587D+00
    73  7.2000000000000D-01 -4.8239115301525D-01  1.2981512195628D+00
    74  7.3000000000000D-01 -4.7701737142192D-01  1.3052735191869D+00
    75  7.4000000000000D-01 -4.6932210217084D-01  1.3112639837010D+00
    76  7.5000000000000D-01 -4.5929039088650D-01  1.3161005689190D+00
    77  7.6000000000000D-01 -4.4691547550226D-01  1.3197635046426D+00
    78  7.7000000000000D-01 -4.3219884901091D-01  1.3222353686716D+00
    79  7.8000000000000D-01 -4.1515029065112D-01  1.3235011542146D+00
    80  7.9000000000000D-01 -3.9578786529699D-01  1.3235483304490D+00
    81  8.0000000000000D-01 -3.7413789094729D-01  1.3223668960070D+00
    82  8.1000000000000D-01 -3.5023487434247D-01  1.3199494251804D+00
    83  8.2000000000000D-01 -3.2412141486958D-01  1.3162911066662D+00
    84  8.3000000000000D-01 -2.9584807704705D-01  1.3113897746944D+00
    85  8.4000000000000D-01 -2.6547323201334D-01  1.3052459324066D+00
    86  8.5000000000000D-01 -2.3306286857393D-01  1.2978627673799D+00
    87  8.6000000000000D-01 -1.9869037449004D-01  1.2892461592146D+00
    88  8.7000000000000D-01 -1.6243628881963D-01  1.2794046791312D+00
    89  8.8000000000000D-01 -1.2438802624467D-01  1.2683495815520D+00
    90  8.9000000000000D-01 -8.4639574439809D-02  1.2560947876629D+00
    91  9.0000000000000D-01 -4.3291165653562D-02  1.2426568609863D+00
    92  9.1000000000000D-01 -4.4892378551284D-04  1.2280549750160D+00
    93  9.2000000000000D-01  4.3775511650361D-02  1.2123108729969D+00
    94  9.3000000000000D-01  8.9265383184719D-02  1.1954488199564D+00
    95  9.4000000000000D-01  1.3589923308778D-01  1.1774955471228D+00
    96  9.5000000000000D-01  1.8355133942515D-01  1.1584801888910D+00
    97  9.6000000000000D-01  2.3209216871823D-01  1.1384342125232D+00
    98  9.7000000000000D-01  2.8138884337917D-01  1.1173913407941D+00
    99  9.8000000000000D-01  3.3130562202364D-01  1.0953874678205D+00
   100  9.9000000000000D-01  3.8170439070869D-01  1.0724605683313D+00
   101  1.0000000000000D+00  4.3244516309170D-01  1.0486506006648D+00
   102  1.0100000000000D+00  4.8338658746757D-01  1.0239994037944D+00
   103  1.0200000000000D+00  5.3438645860956D-01  9.9855058871191D-01
   104  1.0300000000000D+00  5.8530223231723D-01  9.7234942451070D-01
   105  1.0400000000000D+00  6.3599154056260D-01  9.4544271953493D-01
   106  1.0500000000000D+00  6.8631270512271D-01  9.1787869797435D-01
   107  1.0600000000000D+00  7.3612524759223D-01  8.8970687230208D-01
   108  1.0700000000000D+00  7.8529039368729D-01  8.6097791196662D-01
   109  1.0800000000000D+00  8.3367156977596D-01  8.3174350876218D-01
   110  1.0900000000000D+00  8.8113488960773D-01  8.0205623931287D-01
   111  1.1000000000000D+00  9.2754962925707D-01  7.7196942511595D-01
   112  1.1100000000000D+00  9.7278868834734D-01  7.4153699059753D-01
   113  1.1200000000000D+00  1.0167290356889D+00  7.1081331964110D-01
   114  1.1300000000000D+00  1.0592521375324D+00  6.7985311105343D-01
   115  1.1400000000000D+00  1.1002443667219D+00  6.4871123343580D-01
   116  1.1500000000000D+00  1.1395973911043D+00  6.1744257993005D-01
   117  1.1600000000000D+00  1.1772085396681D+00  5.8610192330891D-01
   118  1.1700000000000D+00  1.2129811449739D+00  5.5474377187728D-01
   119  1.1800000000000D+00  1.2468248605467D+00  5.2342222664799D-01
   120  1.1900000000000D+00  1.2786559520058D+00  4.9219084025120D-01
   121  1.2000000000000D+00  1.3083975608472D+00  4.6110247802804D-01
   122  1.2100000000000D+00  1.3359799399224D+00  4.3020918174936D-01
   123  1.2200000000000D+00  1.3613406597274D+00  3.9956203639589D-01
   124  1.2300000000000D+00  1.3844247848243D+00  3.6921104041827D-01
   125  1.2400000000000D+00  1.4051850198273D+00  3.3920497988270D-01
   126  1.2500000000000D+00  1.4235818244805D+00  3.0959130689893D-01
   127  1.2600000000000D+00  1.4395834975370D+00  2.8041602270752D-01
   128  1.2700000000000D+00  1.4531662293098D+00  2.5172356578135D-01
   129  1.2800000000000D+00  1.4643141228329D+00  2.2355670528793D-01
   130  1.2900000000000D+00  1.4730191837453D+00  1.9595644023635D-01
   131  1.3000000000000D+00  1.4792812792131D+00  1.6896190460047D-01
   132  1.3100000000000D+00  1.4831080662092D+00  1.4261027870878D-01
   133  1.3200000000000D+00  1.4845148896903D+00  1.1693670715819D-01
   134  1.3300000000000D+00  1.4835246513924D+00  9.1974223471811D-02
   135  1.3400000000000D+00  1.4801676499104D+00  6.7753681733322D-02
   136  1.3500000000000D+00  1.4744813930364D+00  4.4303695372465D-02
   137  1.3600000000000D+00  1.4665103834066D+00  2.1650583251019D-02
   138  1.3700000000000D+00  1.4563058784485D+00 -1.8167677902644D-04
   139  1.3800000000000D+00  1.4439256260150D+00 -2.1171486772290D-02
   140  1.3900000000000D+00  1.4294335769408D+00 -4.1299659936094D-02
   141  1.4000000000000D+00  1.4128995759264D+00 -6.0549444154699D-02
   142  1.4100000000000D+00  1.3943990323495D+00 -7.8906537795856D-02
   143  1.4200000000000D+00  1.3740125724297D+00 -9.6359097735943D-02
   144  1.4300000000000D+00  1.3518256745162D+00 -1.1289773966495D-01
   145  1.4400000000000D+00  1.3279282891176D+00 -1.2851553069277D-01
   146  1.4500000000000D+00  1.3024144454211D+00 -1.4320797430101D-01
   147  1.4600000000000D+00  1.2753818461237D+00 -1.5697298778249D-01
   148  1.4700000000000D+00  1.2469314523156D+00 -1.6981087220076D-01
   149  1.4800000000000D+00  1.2171670603081D+00 -1.8172427507938D-01
   150  1.4900000000000D+00  1.1861948721891D+00 -1.9271814591792D-01
   151  1.5000000000000D+00  1.1541230619910D+00 -2.0279968473239D-01
   152  1.5100000000000D+00  1.1210613392289D+00 -2.1197828382268D-01
   153  1.5200000000000D+00  1.0871205117350D+00 -2.2026546293690D-01
   154  1.5300000000000D+00  1.0524120493784D+00 -2.2767479812965D-01
   155  1.5400000000000D+00  1.0170476506767D+00 -2.3422184447247D-01
   156  1.5500000000000D+00  9.8113881369100D-01 -2.3992405296484D-01
   157  1.5600000000000D+00  9.4479641315096D-01 -2.4480068184062D-01
   158  1.5700000000000D+00  9.0813028513007D-01 -2.4887270261554D-01
   159  1.5800000000000D+00  8.7124882097083D-01 -2.5216270112965D-01
   160  1.5900000000000D+00  8.3425857180592D-01 -2.5469477391685D-01
   161  1.6000000000000D+00  7.9726386499595D-01 -2.5649442020232D-01
   162  1.6100000000000D+00  7.6036643391357D-01 -2.5758842985290D-01
   163  1.6200000000000D+00  7.2366506192356D-01 -2.5800476760861D-01
   164  1.6300000000000D+00  6.8725524210129D-01 -2.5777245392294D-01
   165  1.6400000000000D+00  6.5122885301320D-01 -2.5692144274683D-01
   166  1.6500000000000D+00  6.1567385221446D-01 -2.5548249659593D-01
   167  1.6600000000000D+00  5.8067398724652D-01 -2.5348705922328D-01
   168  1.6700000000000D+00  5.4630852587220D-01 -2.5096712625706D-01
   169  1.6800000000000D+00  5.1265200481541D-01 -2.4795511409584D-01
   170  1.6900000000000D+00  4.7977399876643D-01 -2.4448372744559D-01
   171  1.7000000000000D+00  4.4773890846834D-01 -2.4058582574939D-01
   172  1.7100000000000D+00  4.1660576958232D-01 -2.3629428891847D-01
   173  1.7200000000000D+00  3.8642808079783D-01 -2.3164188256784D-01
   174  1.7300000000000D+00  3.5725365270925D-01 -2.2666112318394D-01
   175  1.7400000000000D+00  3.2912447571288D-01 -2.2138414338080D-01
   176  1.7500000000000D+00  3.0207660428966D-01 -2.1584255669679D-01
   177  1.7600000000000D+00  2.7614008025852D-01 -2.1006732827438D-01
   178  1.7700000000000D+00  2.5133880879923D-01 -2.0408862910959D-01
   179  1.7800000000000D+00  2.2769061484977D-01 -1.9793573576014D-01
   180  1.7900000000000D+00  2.0520715528487D-01 -1.9163688487008D-01
   181  1.8000000000000D+00  1.8389360729973D-01 -1.8521907306996D-01
   182  1.8100000000000D+00  1.6374899211421D-01 -1.7870801625026D-01
   183  1.8200000000000D+00  1.4476693061754D-01 -1.7212821014994D-01
   184  1.8300000000000D+00  1.2693624922084D-01 -1.6550297090833D-01
   185  1.8400000000000D+00  1.1024176636530D-01 -1.5885455227151D-01
   186  1.8500000000000D+00  9.4665134012452D-02 -1.5220427227608D-01
   187  1.8600000000000D+00  8.0184752594522D-02 -1.4557241394426D-01
   188  1.8700000000000D+00  6.6775844354642D-02 -1.3897817792633D-01
   189  1.8800000000000D+00  5.4410867985772D-02 -1.3243970762713D-01
   190  1.8900000000000D+00  4.3059687330851D-02 -1.2597406269362D-01
   191  1.9000000000000D+00  3.2689824881481D-02 -1.1959721413586D-01
   192  1.9100000000000D+00  2.3266705673897D-02 -1.1332403974949D-01
   193  1.9200000000000D+00  1.4753900096215D-02 -1.0716832214626D-01
   194  1.9300000000000D+00  7.1133682284677D-03 -1.0114275018260D-01
   195  1.9400000000000D+00  3.0570333872075D-04 -9.5258923416746D-02
   196  1.9500000000000D+00 -5.7096267384090D-03 -8.9527359690597D-02
   197  1.9600000000000D+00 -1.0974040899251D-02 -8.3957505497468D-02
   198  1.9700000000000D+00 -1.5529610733707D-02 -7.8557749457139D-02
   199  1.9800000000000D+00 -1.9418831016877D-02 -7.3335438418341D-02
   200  1.9900000000000D+00 -2.2684396879931D-02 -6.8296896417098D-02
   201  2.0000000000000D+00 -2.5368987898960D-02 -6.3447446234589D-02
   202  2.0100000000000D+00 -2.7515059994766D-02 -5.8791433432193D-02
   203  2.0200000000000D+00 -2.9164647164700D-02 -5.4332252928772D-02
   204  2.0300000000000D+00 -3.0359171521892D-02 -5.0072377700765D-02
   205  2.0400000000000D+00 -3.1139265609292D-02 -4.6013389808378D-02
   206  2.0500000000000D+00 -3.1544604536500D-02 -4.2156013338257D-02
   207  2.0600000000000D+00 -3.1613750574115D-02 -3.8500149261919D-02
   208  2.0700000000000D+00 -3.1384010724856D-02 -3.5044912057978D-02
   209  2.0800000000000D+00 -3.0891305406606D-02 -3.1788667858244D-02
   210  2.0900000000000D+00 -3.0170052916816D-02 -2.8729074083734D-02
   211  2.1000000000000D+00 -2.9253065142431D-02 -2.5863120323379D-02
   212  2.1100000000000D+00 -2.8171458374182D-02 -2.3187170334372D-02
   213  2.1200000000000D+00 -2.6954578287413D-02 -2.0697005002114D-02
   214  2.1300000000000D+00 -2.5629937026815D-02 -1.8387866130746D-02
   215  2.1400000000000D+00 -2.4223167039071D-02 -1.6254500822462D-02
   216  2.1500000000000D+00 -2.2757986158137D-02 -1.4291206423364D-02
   217  2.1600000000000D+00 -2.1256177524879D-02 -1.2491875768385D-02
   218  2.1700000000000D+00 -1.9737583420820D-02 -1.0850042592396D-02
   219  2.1800000000000D+00 -1.8220109668479D-02 -9.3589271180713D-03
   220  2.1900000000000D+00 -1.6719745602982D-02 -8.0114813708344D-03
   221  2.2000000000000D+00 -1.5250593780175D-02 -6.8004344122839D-03
   222  2.2100000000000D+00 -1.3824911535309D-02 -5.7183371823106D-03
   223  2.2200000000000D+00 -1.2453164426995D-02 -4.7576067543245D-03
   224  2.2300000000000D+00 -1.1144087782736D-02 -3.9105701755464D-03
   225  2.2400000000000D+00 -9.9047592067466D-03 -3.1695073898188D-03
   226  2.2500000000000D+00 -8.7406789969625D-03 -2.5266933883576D-03
   227  2.2600000000000D+00 -7.6558574601475D-03 -1.9744395377519D-03
   228  2.2700000000000D+00 -6.6529102852933D-03 -1.5051336188288D-03
   229  2.2800000000000D+00 -5.7331587675016D-03 -1.1112789407354D-03
   230  2.2900000000000D+00 -4.8967351537238D-03 -7.8553215929428D-04
   231  2.3000000000000D+00 -4.1426921278353D-03 -5.2073966285178D-04
   232  2.3100000000000D+00 -3.4691151288745D-03 -3.0997279320569D-04
   233  2.3200000000000D+00 -2.8732365756652D-03 -1.4656139623375D-04
   234  2.3300000000000D+00 -2.3515510163914D-03 -2.4125851800950D-05
   235  2.3400000000000D+00 -1.8999311582472D-03  6.3392281791060D-05
   236  2.3500000000000D+00 -1.5137416475884D-03  1.2170160180856D-04
   237  2.3600000000000D+00 -1.1879519197331D-03  1.5613372002238D-04
   238  2.3700000000000D+00 -9.1724695226998D-04  1.7161782448730D-04
   239  2.3800000000000D+00 -6.9613245310227D-04  1.7265728306837D-04
   240  2.3900000000000D+00 -5.1903758528374D-04  1.6330789152647D-04
   241  2.4000000000000D+00 -3.8041221484826D-04  1.4715803903484D-04
   242  2.4100000000000D+00 -2.7488203135277D-04  1.2733936325074D-04
   243  2.4200000000000D+00 -1.9713547119365D-04  1.0642481899726D-04
   244  2.4300000000000D+00 -1.4206514597552D-04  8.6442675411077D-05
   245  2.4400000000000D+00 -1.0449024908041D-04  6.8599200083205D-05
   246  2.4500000000000D+00 -8.1107133767564D-05  5.4471388241763D-05
   247  2.4600000000000D+00 -6.9195500806775D-05  4.5159707611871D-05
   248  2.4700000000000D+00 -6.7359405339204D-05  4.1837390787881D-05
   249  2.4800000000000D+00 -6.8296305575396D-05  4.0939344121278D-05
   250  2.4900000000000D+00 -6.4692362666715D-05  3.8199727266238D-05
   251  2.5000000000000D+00 -4.8546959689209D-05  2.8453902234196D-05
   252  2.5100000000000D+00 -2.5587709177481D-05  1.4936028729036D-05
   253  2.5200000000000D+00 -3.9244165457046D-06  2.2871085193909D-06
   254  2.5300000000000D+00  5.7698607081434D-06 -3.3356342926971D-06
   255  2.5400000000000D+00  5.9528295707075D-06 -3.4334793862415D-06
   256  2.5500000000000D+00  1.3566076327014D-06 -7.8105613802859D-07
   257  2.5600000000000D+00 -1.1579304997012D-06  6.7508174931598D-07
   258  2.5700000000000D+00 -1.3990754359536D-06  8.1523738788734D-07
   259  2.5800000000000D+00 -4.1804841353453D-07  2.4348719211232D-07
   260  2.5900000000000D+00  1.2494974726733D-07 -7.3687971019312D-08
   261  2.6000000000000D+00  1.7333856561353D-07 -1.0222483421380D-07
   262  2.6100000000000D+00  6.7792369649797D-08 -3.9979930166619D-08
   263  2.6200000000000D+00  0.0000000000000D+00  0.0000000000000D+00
   264  2.6300000000000D+00  0.0000000000000D+00  0.0000000000000D+00
   265  2.6400000000000D+00  0.0000000000000D+00  0.0000000000000D+00
   266  2.6500000000000D+00  0.0000000000000D+00  0.0000000000000D+00
   267  2.6600000000000D+00  0.0000000000000D+00  0.0000000000000D+00
   268  2.6700000000000D+00  0.0000000000000D+00  0.0000000000000D+00
   269  2.6800000000000D+00  0.0000000000000D+00  0.0000000000000D+00
   270  2.6900000000000D+00  0.0000000000000D+00  0.0000000000000D+00
   271  2.7000000000000D+00  0.0000000000000D+00  0.0000000000000D+00
   272  2.7100000000000D+00  0.0000000000000D+00  0.0000000000000D+00
   273  2.7200000000000D+00  0.0000000000000D+00  0.0000000000000D+00
   274  2.7300000000000D+00  0.0000000000000D+00  0.0000000000000D+00
   275  2.7400000000000D+00  0.0000000000000D+00  0.0000000000000D+00
   276  2.7500000000000D+00  0.0000000000000D+00  0.0000000000000D+00
   277  2.7600000000000D+00  0.0000000000000D+00  0.0000000000000D+00
   278  2.7700000000000D+00  0.0000000000000D+00  0.0000000000000D+00
   279  2.7800000000000D+00  0.0000000000000D+00  0.0000000000000D+00
   280  2.7900000000000D+00  0.0000000000000D+00  0.0000000000000D+00
   281  2.8000000000000D+00  0.0000000000000D+00  0.0000000000000D+00
   282  2.8100000000000D+00  0.0000000000000D+00  0.0000000000000D+00
   283  2.8200000000000D+00  0.0000000000000D+00  0.0000000000000D+00
   284  2.8300000000000D+00  0.0000000000000D+00  0.0000000000000D+00
   285  2.8400000000000D+00  0.0000000000000D+00  0.0000000000000D+00
   286  2.8500000000000D+00  0.0000000000000D+00  0.0000000000000D+00
   287  2.8600000000000D+00  0.0000000000000D+00  0.0000000000000D+00
   288  2.8700000000000D+00  0.0000000000000D+00  0.0000000000000D+00
   289  2.8800000000000D+00  0.0000000000000D+00  0.0000000000000D+00
   290  2.8900000000000D+00  0.0000000000000D+00  0.0000000000000D+00
   291  2.9000000000000D+00  0.0000000000000D+00  0.0000000000000D+00
   292  2.9100000000000D+00  0.0000000000000D+00  0.0000000000000D+00
   293  2.9200000000000D+00  0.0000000000000D+00  0.0000000000000D+00
   294  2.9300000000000D+00  0.0000000000000D+00  0.0000000000000D+00
   295  2.9400000000000D+00  0.0000000000000D+00  0.0000000000000D+00
   296  2.9500000000000D+00  0.0000000000000D+00  0.0000000000000D+00
   297  2.9600000000000D+00  0.0000000000000D+00  0.0000000000000D+00
   298  2.9700000000000D+00  0.0000000000000D+00  0.0000000000000D+00
   299  2.9800000000000D+00  0.0000000000000D+00  0.0000000000000D+00
   300  2.9900000000000D+00  0.0000000000000D+00  0.0000000000000D+00
   301  3.0000000000000D+00  0.0000000000000D+00  0.0000000000000D+00
   302  3.0100000000000D+00  0.0000000000000D+00  0.0000000000000D+00
   303  3.0200000000000D+00  0.0000000000000D+00  0.0000000000000D+00
   304  3.0300000000000D+00  0.0000000000000D+00  0.0000000000000D+00
   305  3.0400000000000D+00  0.0000000000000D+00  0.0000000000000D+00
   306  3.0500000000000D+00  0.0000000000000D+00  0.0000000000000D+00
   307  3.0600000000000D+00  0.0000000000000D+00  0.0000000000000D+00
   308  3.0700000000000D+00  0.0000000000000D+00  0.0000000000000D+00
   309  3.0800000000000D+00  0.0000000000000D+00  0.0000000000000D+00
   310  3.0900000000000D+00  0.0000000000000D+00  0.0000000000000D+00
   311  3.1000000000000D+00  0.0000000000000D+00  0.0000000000000D+00
   312  3.1100000000000D+00  0.0000000000000D+00  0.0000000000000D+00
   313  3.1200000000000D+00  0.0000000000000D+00  0.0000000000000D+00
   314  3.1300000000000D+00  0.0000000000000D+00  0.0000000000000D+00
   315  3.1400000000000D+00  0.0000000000000D+00  0.0000000000000D+00
   316  3.1500000000000D+00  0.0000000000000D+00  0.0000000000000D+00
   317  3.1600000000000D+00  0.0000000000000D+00  0.0000000000000D+00
   318  3.1700000000000D+00  0.0000000000000D+00  0.0000000000000D+00
   319  3.1800000000000D+00  0.0000000000000D+00  0.0000000000000D+00
   320  3.1900000000000D+00  0.0000000000000D+00  0.0000000000000D+00
   321  3.2000000000000D+00  0.0000000000000D+00  0.0000000000000D+00
   322  3.2100000000000D+00  0.0000000000000D+00  0.0000000000000D+00
   323  3.2200000000000D+00  0.0000000000000D+00  0.0000000000000D+00
   324  3.2300000000000D+00  0.0000000000000D+00  0.0000000000000D+00
   325  3.2400000000000D+00  0.0000000000000D+00  0.0000000000000D+00
   326  3.2500000000000D+00  0.0000000000000D+00  0.0000000000000D+00
   327  3.2600000000000D+00  0.0000000000000D+00  0.0000000000000D+00
   328  3.2700000000000D+00  0.0000000000000D+00  0.0000000000000D+00
   329  3.2800000000000D+00  0.0000000000000D+00  0.0000000000000D+00
   330  3.2900000000000D+00  0.0000000000000D+00  0.0000000000000D+00
   331  3.3000000000000D+00  0.0000000000000D+00  0.0000000000000D+00
   332  3.3100000000000D+00  0.0000000000000D+00  0.0000000000000D+00
   333  3.3200000000000D+00  0.0000000000000D+00  0.0000000000000D+00
   334  3.3300000000000D+00  0.0000000000000D+00  0.0000000000000D+00
   335  3.3400000000000D+00  0.0000000000000D+00  0.0000000000000D+00
   336  3.3500000000000D+00  0.0000000000000D+00  0.0000000000000D+00
   337  3.3600000000000D+00  0.0000000000000D+00  0.0000000000000D+00
   338  3.3700000000000D+00  0.0000000000000D+00  0.0000000000000D+00
   339  3.3800000000000D+00  0.0000000000000D+00  0.0000000000000D+00
   340  3.3900000000000D+00  0.0000000000000D+00  0.0000000000000D+00
   341  3.4000000000000D+00  0.0000000000000D+00  0.0000000000000D+00
   342  3.4100000000000D+00  0.0000000000000D+00  0.0000000000000D+00
   343  3.4200000000000D+00  0.0000000000000D+00  0.0000000000000D+00
   344  3.4300000000000D+00  0.0000000000000D+00  0.0000000000000D+00
   345  3.4400000000000D+00  0.0000000000000D+00  0.0000000000000D+00
   346  3.4500000000000D+00  0.0000000000000D+00  0.0000000000000D+00
   347  3.4600000000000D+00  0.0000000000000D+00  0.0000000000000D+00
   348  3.4700000000000D+00  0.0000000000000D+00  0.0000000000000D+00
   349  3.4800000000000D+00  0.0000000000000D+00  0.0000000000000D+00
   350  3.4900000000000D+00  0.0000000000000D+00  0.0000000000000D+00
   351  3.5000000000000D+00  0.0000000000000D+00  0.0000000000000D+00
   352  3.5100000000000D+00  0.0000000000000D+00  0.0000000000000D+00
   353  3.5200000000000D+00  0.0000000000000D+00  0.0000000000000D+00
   354  3.5300000000000D+00  0.0000000000000D+00  0.0000000000000D+00
   355  3.5400000000000D+00  0.0000000000000D+00  0.0000000000000D+00
   356  3.5500000000000D+00  0.0000000000000D+00  0.0000000000000D+00
   357  3.5600000000000D+00  0.0000000000000D+00  0.0000000000000D+00
   358  3.5700000000000D+00  0.0000000000000D+00  0.0000000000000D+00
   359  3.5800000000000D+00  0.0000000000000D+00  0.0000000000000D+00
   360  3.5900000000000D+00  0.0000000000000D+00  0.0000000000000D+00
   361  3.6000000000000D+00  0.0000000000000D+00  0.0000000000000D+00
   362  3.6100000000000D+00  0.0000000000000D+00  0.0000000000000D+00
   363  3.6200000000000D+00  0.0000000000000D+00  0.0000000000000D+00
   364  3.6300000000000D+00  0.0000000000000D+00  0.0000000000000D+00
   365  3.6400000000000D+00  0.0000000000000D+00  0.0000000000000D+00
   366  3.6500000000000D+00  0.0000000000000D+00  0.0000000000000D+00
   367  3.6600000000000D+00  0.0000000000000D+00  0.0000000000000D+00
   368  3.6700000000000D+00  0.0000000000000D+00  0.0000000000000D+00
   369  3.6800000000000D+00  0.0000000000000D+00  0.0000000000000D+00
   370  3.6900000000000D+00  0.0000000000000D+00  0.0000000000000D+00
   371  3.7000000000000D+00  0.0000000000000D+00  0.0000000000000D+00
   372  3.7100000000000D+00  0.0000000000000D+00  0.0000000000000D+00
   373  3.7200000000000D+00  0.0000000000000D+00  0.0000000000000D+00
   374  3.7300000000000D+00  0.0000000000000D+00  0.0000000000000D+00
   375  3.7400000000000D+00  0.0000000000000D+00  0.0000000000000D+00
   376  3.7500000000000D+00  0.0000000000000D+00  0.0000000000000D+00
   377  3.7600000000000D+00  0.0000000000000D+00  0.0000000000000D+00
   378  3.7700000000000D+00  0.0000000000000D+00  0.0000000000000D+00
   379  3.7800000000000D+00  0.0000000000000D+00  0.0000000000000D+00
   380  3.7900000000000D+00  0.0000000000000D+00  0.0000000000000D+00
   381  3.8000000000000D+00  0.0000000000000D+00  0.0000000000000D+00
   382  3.8100000000000D+00  0.0000000000000D+00  0.0000000000000D+00
   383  3.8200000000000D+00  0.0000000000000D+00  0.0000000000000D+00
   384  3.8300000000000D+00  0.0000000000000D+00  0.0000000000000D+00
   385  3.8400000000000D+00  0.0000000000000D+00  0.0000000000000D+00
   386  3.8500000000000D+00  0.0000000000000D+00  0.0000000000000D+00
   387  3.8600000000000D+00  0.0000000000000D+00  0.0000000000000D+00
   388  3.8700000000000D+00  0.0000000000000D+00  0.0000000000000D+00
   389  3.8800000000000D+00  0.0000000000000D+00  0.0000000000000D+00
   390  3.8900000000000D+00  0.0000000000000D+00  0.0000000000000D+00
   391  3.9000000000000D+00  0.0000000000000D+00  0.0000000000000D+00
   392  3.9100000000000D+00  0.0000000000000D+00  0.0000000000000D+00
   393  3.9200000000000D+00  0.0000000000000D+00  0.0000000000000D+00
   394  3.9300000000000D+00  0.0000000000000D+00  0.0000000000000D+00
   395  3.9400000000000D+00  0.0000000000000D+00  0.0000000000000D+00
   396  3.9500000000000D+00  0.0000000000000D+00  0.0000000000000D+00
   397  3.9600000000000D+00  0.0000000000000D+00  0.0000000000000D+00
   398  3.9700000000000D+00  0.0000000000000D+00  0.0000000000000D+00
   399  3.9800000000000D+00  0.0000000000000D+00  0.0000000000000D+00
   400  3.9900000000000D+00  0.0000000000000D+00  0.0000000000000D+00
   401  4.0000000000000D+00  0.0000000000000D+00  0.0000000000000D+00
   402  4.0100000000000D+00  0.0000000000000D+00  0.0000000000000D+00
   403  4.0200000000000D+00  0.0000000000000D+00  0.0000000000000D+00
   404  4.0300000000000D+00  0.0000000000000D+00  0.0000000000000D+00
   405  4.0400000000000D+00  0.0000000000000D+00  0.0000000000000D+00
   406  4.0500000000000D+00  0.0000000000000D+00  0.0000000000000D+00
   407  4.0600000000000D+00  0.0000000000000D+00  0.0000000000000D+00
   408  4.0700000000000D+00  0.0000000000000D+00  0.0000000000000D+00
   409  4.0800000000000D+00  0.0000000000000D+00  0.0000000000000D+00
   410  4.0900000000000D+00  0.0000000000000D+00  0.0000000000000D+00
   411  4.1000000000000D+00  0.0000000000000D+00  0.0000000000000D+00
   412  4.1100000000000D+00  0.0000000000000D+00  0.0000000000000D+00
   413  4.1200000000000D+00  0.0000000000000D+00  0.0000000000000D+00
   414  4.1300000000000D+00  0.0000000000000D+00  0.0000000000000D+00
   415  4.1400000000000D+00  0.0000000000000D+00  0.0000000000000D+00
   416  4.1500000000000D+00  0.0000000000000D+00  0.0000000000000D+00
   417  4.1600000000000D+00  0.0000000000000D+00  0.0000000000000D+00
   418  4.1700000000000D+00  0.0000000000000D+00  0.0000000000000D+00
   419  4.1800000000000D+00  0.0000000000000D+00  0.0000000000000D+00
   420  4.1900000000000D+00  0.0000000000000D+00  0.0000000000000D+00
   421  4.2000000000000D+00  0.0000000000000D+00  0.0000000000000D+00
   422  4.2100000000000D+00  0.0000000000000D+00  0.0000000000000D+00