V     ONCVPSP-3.3.1  r_core=   1.72984   1.99606   2.02001
     23.0000     13.0000      210904    zatom,zion,pspd
     8      11   2     4   600     0    pspcod,pspxc,lmax,lloc,mmax,r2well
  5.99000000  0.00000000  0.00000000    rchrg fchrg qchrg
     2     2     2     0    nproj
     3     1           extension_switch
     4     3     0    nprojso
   0                        -5.0941688715030D-01  3.6373716440100D+00
     1  0.0000000000000D+00  7.1168800019894D-10  3.2932279125930D-10
     2  1.0000000000000D-02 -8.1922481932743D-03  5.8486248990485D-02
     3  2.0000000000000D-02 -1.6184519056854D-02  1.1692772189881D-01
     4  3.0000000000000D-02 -2.3778756864838D-02  1.7527901214314D-01
     5  4.0000000000000D-02 -3.0780730402655D-02  2.3349346053366D-01
     6  5.0000000000000D-02 -3.7001898664452D-02  2.9152254986271D-01
     7  6.0000000000000D-02 -4.2261221189228D-02  3.4931532433252D-01
     8  7.0000000000000D-02 -4.6386895424598D-02  4.0681784171011D-01
     9  8.0000000000000D-02 -4.9218004218706D-02  4.6397266576936D-01
    10  9.0000000000000D-02 -5.0606057417430D-02  5.2071840617464D-01
    11  1.0000000000000D-01 -5.0416412576995D-02  5.7698931248194D-01
    12  1.1000000000000D-01 -4.8529560981481D-02  6.3271492838682D-01
    13  1.2000000000000D-01 -4.4842266469001D-02  6.8781981173938D-01
    14  1.3000000000000D-01 -3.9268546006755D-02  7.4222332517950D-01
    15  1.4000000000000D-01 -3.1740482499908D-02  7.9583950152865D-01
    16  1.5000000000000D-01 -2.2208861957081D-02  8.4857698731283D-01
    17  1.6000000000000D-01 -1.0643628850509D-02  9.0033906699325D-01
    18  1.7000000000000D-01  2.9658447152752D-03  9.5102376965386D-01
    19  1.8000000000000D-01  1.8610678593134D-02  1.0005240590462D+00
    20  1.9000000000000D-01  3.6262593663475D-02  1.0487281070298D+00
    21  2.0000000000000D-01  5.5874209254351D-02  1.0955196495803D+00
    22  2.1000000000000D-01  7.7379525938851D-02  1.1407784236717D+00
    23  2.2000000000000D-01  1.0069458892324D-01  1.1843806824895D+00
    24  2.3000000000000D-01  1.2571832547150D-01  1.2261997855966D+00
    25  2.4000000000000D-01  1.5233354810738D-01  1.2661068598712D+00
    26  2.5000000000000D-01  1.8040811371052D-01  1.3039715262627D+00
    27  2.6000000000000D-01  2.0979622709466D-01  1.3396626866913D+00
    28  2.7000000000000D-01  2.4033987623791D-01  1.3730493647324D+00
    29  2.8000000000000D-01  2.7187038504242D-01  1.4040015931142D+00
    30  2.9000000000000D-01  3.0421006834503D-01  1.4323913404940D+00
    31  3.0000000000000D-01  3.3717397289421D-01  1.4580934694919D+00
    32  3.1000000000000D-01  3.7057168716080D-01  1.4809867175430D+00
    33  3.2000000000000D-01  4.0420920216993D-01  1.5009546917909D+00
    34  3.3000000000000D-01  4.3789080503515D-01  1.5178868689850D+00
    35  3.4000000000000D-01  4.7142098654899D-01  1.5316795911701D+00
    36  3.5000000000000D-01  5.0460634403996D-01  1.5422370478668D+00
    37  3.6000000000000D-01  5.3725746074543D-01  1.5494722354373D+00
    38  3.7000000000000D-01  5.6919074317447D-01  1.5533078844151D+00
    39  3.8000000000000D-01  6.0023019833976D-01  1.5536773457477D+00
    40  3.9000000000000D-01  6.3020913332250D-01  1.5505254271556D+00
    41  4.0000000000000D-01  6.5897176039070D-01  1.5438091711509D+00
    42  4.1000000000000D-01  6.8637469181344D-01  1.5334985666769D+00
    43  4.2000000000000D-01  7.1228830959285D-01  1.5195771868259D+00
    44  4.3000000000000D-01  7.3659799656026D-01  1.5020427456619D+00
    45  4.4000000000000D-01  7.5920521664270D-01  1.4809075678087D+00
    46  4.5000000000000D-01  7.8002843358623D-01  1.4561989651635D+00
    47  4.6000000000000D-01  7.9900385901014D-01  1.4279595158503D+00
    48  4.7000000000000D-01  8.1608602234448D-01  1.3962472413260D+00
    49  4.8000000000000D-01  8.3124815695703D-01  1.3611356784025D+00
    50  4.9000000000000D-01  8.4448239858713D-01  1.3227138438212D+00
    51  5.0000000000000D-01  8.5579979405483D-01  1.2810860899232D+00
    52  5.1000000000000D-01  8.6523012008730D-01  1.2363718508834D+00
    53  5.2000000000000D-01  8.7282151398095D-01  1.1887052799046D+00
    54  5.3000000000000D-01  8.7863991967841D-01  1.1382347787063D+00
    55  5.4000000000000D-01  8.8276835466904D-01  1.0851224215654D+00
    56  5.5000000000000D-01  8.8530600489677D-01  1.0295432770807D+00
    57  5.6000000000000D-01  8.8636715656693D-01  9.7168463171465D-01
    58  5.7000000000000D-01  8.8607997536640D-01  9.1174512002653D-01
    59  5.8000000000000D-01  8.8458514512758D-01  8.4993376732052D-01
    60  5.9000000000000D-01  8.8203437937304D-01  7.8646895120294D-01
    61  6.0000000000000D-01  8.7858882044345D-01  7.2157728925350D-01
    62  6.1000000000000D-01  8.7441734204240D-01  6.5549246066940D-01
    63  6.2000000000000D-01  8.6969477199957D-01  5.8845397032441D-01
    64  6.3000000000000D-01  8.6460005286123D-01  5.2070586419890D-01
    65  6.4000000000000D-01  8.5931435854986D-01  4.5249540557292D-01
    66  6.5000000000000D-01  8.5401918578561D-01  3.8407172172840D-01
    67  6.6000000000000D-01  8.4889443923224D-01  3.1568443117894D-01
    68  6.7000000000000D-01  8.4411652940885D-01  2.4758226162912D-01
    69  6.8000000000000D-01  8.3985650230182D-01  1.8001166896179D-01
    70  6.9000000000000D-01  8.3627821931450D-01  1.1321546755919D-01
    71  7.0000000000000D-01  8.3353660571178D-01  4.7431482181928D-02
    72  7.1000000000000D-01  8.3177598505307D-01 -1.7108768540949D-02
    73  7.2000000000000D-01  8.3112851627541D-01 -8.0181347212649D-02
    74  7.3000000000000D-01  8.3171274908255D-01 -1.4157112190415D-01
    75  7.4000000000000D-01  8.3363231213898D-01 -2.0107293048989D-01
    76  7.5000000000000D-01  8.3697474726512D-01 -2.5849267654775D-01
    77  7.6000000000000D-01  8.4181050139406D-01 -3.1364834885838D-01
    78  7.7000000000000D-01  8.4819208649542D-01 -3.6637095717820D-01
    79  7.8000000000000D-01  8.5615341601810D-01 -4.1650537765840D-01
    80  7.9000000000000D-01  8.6570932466035D-01 -4.6391110203695D-01
    81  8.0000000000000D-01  8.7685527646167D-01 -5.0846288553319D-01
    82  8.1000000000000D-01  8.8956726435184D-01 -5.5005128921570D-01
    83  8.2000000000000D-01  9.0380190239568D-01 -5.8858311348920D-01
    84  8.3000000000000D-01  9.1949671006432D-01 -6.2398172024553D-01
    85  8.4000000000000D-01  9.3657058596052D-01 -6.5618724213958D-01
    86  8.5000000000000D-01  9.5492446654776D-01 -6.8515667837433D-01
    87  8.6000000000000D-01  9.7444216359770D-01 -7.1086387730280D-01
    88  8.7000000000000D-01  9.9499137229814D-01 -7.3329940706911D-01
    89  8.8000000000000D-01  1.0164248402700D+00 -7.5247031640842D-01
    90  8.9000000000000D-01  1.0385816861461D+00 -7.6839978859849D-01
    91  9.0000000000000D-01  1.0612888548802D+00 -7.8112669239511D-01
    92  9.1000000000000D-01  1.0843626955997D+00 -7.9070503458387D-01
    93  9.2000000000000D-01  1.1076106466026D+00 -7.9720331953318D-01
    94  9.3000000000000D-01  1.1308330110347D+00 -8.0070382183231D-01
    95  9.4000000000000D-01  1.1538248058944D+00 -8.0130177873870D-01
    96  9.5000000000000D-01  1.1763776662835D+00 -7.9910450973265D-01
    97  9.6000000000000D-01  1.1982817862893D+00 -7.9423047097931D-01
    98  9.7000000000000D-01  1.2193278775210D+00 -7.8680825293587D-01
    99  9.8000000000000D-01  1.2393091261668D+00 -7.7697552968957D-01
   100  9.9000000000000D-01  1.2580231294612D+00 -7.6487796888961D-01
   101  1.0000000000000D+00  1.2752737926768D+00 -7.5066811132855D-01
   102  1.0100000000000D+00  1.2908731681567D+00 -7.3450422934082D-01
   103  1.0200000000000D+00  1.3046432185202D+00 -7.1654917321063D-01
   104  1.0300000000000D+00  1.3164174869136D+00 -6.9696921473294D-01
   105  1.0400000000000D+00  1.3260426581490D+00 -6.7593289693706D-01
   106  1.0500000000000D+00  1.3333799956836D+00 -6.5360989876579D-01
   107  1.0600000000000D+00  1.3383066406342D+00 -6.3016992322123D-01
   108  1.0700000000000D+00  1.3407167604397D+00 -6.0578161712294D-01
   109  1.0800000000000D+00  1.3405225363207D+00 -5.8061153019045D-01
   110  1.0900000000000D+00  1.3376549801897D+00 -5.5482312071462D-01
   111  1.1000000000000D+00  1.3320645735913D+00 -5.2857581446991D-01
   112  1.1100000000000D+00  1.3237217228627D+00 -5.0202412298026D-01
   113  1.1200000000000D+00  1.3126170267601D+00 -4.7531682653330D-01
   114  1.1300000000000D+00  1.2987613543339D+00 -4.4859622678952D-01
   115  1.1400000000000D+00  1.2821857331237D+00 -4.2199747297825D-01
   116  1.1500000000000D+00  1.2629410494136D+00 -3.9564796502294D-01
   117  1.1600000000000D+00  1.2410975643960D+00 -3.6966683608765D-01
   118  1.1700000000000D+00  1.2167442514334D+00 -3.4416451649277D-01
   119  1.1800000000000D+00  1.1899879620028D+00 -3.1924237992780D-01
   120  1.1900000000000D+00  1.1609524292723D+00 -2.9499247226726D-01
   121  1.2000000000000D+00  1.1297771199594D+00 -2.7149732250556D-01
   122  1.2100000000000D+00  1.0966159463240D+00 -2.4882983477003D-01
   123  1.2200000000000D+00  1.0616358520842D+00 -2.2705325938882D-01
   124  1.2300000000000D+00  1.0250152869259D+00 -2.0622124045810D-01
   125  1.2400000000000D+00  9.8694258504867D-01 -1.8637793696790D-01
   126  1.2500000000000D+00  9.4761426479060D-01 -1.6755821355909D-01
   127  1.2600000000000D+00  9.0723326663554D-01 -1.4978789665635D-01
   128  1.2700000000000D+00  8.6600714739906D-01 -1.3308409141609D-01
   129  1.2800000000000D+00  8.2414624916594D-01 -1.1745555421472D-01
   130  1.2900000000000D+00  7.8186186129272D-01 -1.0290311516721D-01
   131  1.3000000000000D+00  7.3936439400681D-01 -8.9420145041597D-02
   132  1.3100000000000D+00  6.9686158206778D-01 -7.6993060428843D-02
   133  1.3200000000000D+00  6.5455673585088D-01 -6.5601861071208D-02
   134  1.3300000000000D+00  6.1264705781777D-01 -5.5220693130797D-02
   135  1.3400000000000D+00  5.7132204062303D-01 -4.5818432032133D-02
   136  1.3500000000000D+00  5.3076196180246D-01 -3.7359278832134D-02
   137  1.3600000000000D+00  4.9113649113936D-01 -2.9803363740502D-02
   138  1.3700000000000D+00  4.5260342228785D-01 -2.3107351063138D-02
   139  1.3800000000000D+00  4.1530754129645D-01 -1.7225039785220D-02
   140  1.3900000000000D+00  3.7937964335280D-01 -1.2107954067687D-02
   141  1.4000000000000D+00  3.4493570402460D-01 -7.7059191190429D-03
   142  1.4100000000000D+00  3.1207621546434D-01 -3.9676169170697D-03
   143  1.4200000000000D+00  2.8088569029541D-01 -8.4111801058312D-04
   144  1.4300000000000D+00  2.5143233733734D-01  1.7256145765478D-03
   145  1.4400000000000D+00  2.2376791297847D-01  3.7842534014217D-03
   146  1.4500000000000D+00  1.9792774369517D-01  5.3856683186252D-03
   147  1.4600000000000D+00  1.7393092334066D-01  6.5795258727399D-03
   148  1.4700000000000D+00  1.5178067635175D-01  7.4139268453269D-03
   149  1.4800000000000D+00  1.3146488443946D-01  7.9350842037002D-03
   150  1.4900000000000D+00  1.1295676913618D-01  8.1870422999999D-03
   151  1.5000000000000D+00  9.6215719049630D-02  8.2114368468326D-03
   152  1.5100000000000D+00  8.1188255971338D-02  8.0472971253821D-03
   153  1.5200000000000D+00  6.7809122199140D-02  7.7308877329042D-03
   154  1.5300000000000D+00  5.6002482185679D-02  7.2955910383464D-03
   155  1.5400000000000D+00  4.5683218915182D-02  6.7718268628957D-03
   156  1.5500000000000D+00  3.6758313968890D-02  6.1870090504510D-03
   157  1.5600000000000D+00  2.9128292643911D-02  5.5655357473976D-03
   158  1.5700000000000D+00  2.2688719190449D-02  4.9288113621310D-03
   159  1.5800000000000D+00  1.7331724095527D-02  4.2952973353011D-03
   160  1.5900000000000D+00  1.2947547163330D-02  3.6805886071210D-03
   161  1.6000000000000D+00  9.4260774822541D-03  3.0975128727431D-03
   162  1.6100000000000D+00  6.6583757048067D-03  2.5562492223943D-03
   163  1.6200000000000D+00  4.5381574126939D-03  2.0644627986329D-03
   164  1.6300000000000D+00  2.9632275244823D-03  1.6274525911557D-03
   165  1.6400000000000D+00  1.8368411579083D-03  1.2483081906012D-03
   166  1.6500000000000D+00  1.0689876321779D-03  9.2807402597726D-04
   167  1.6600000000000D+00  5.7757081129570D-04  6.6591654656064D-04
   168  1.6700000000000D+00  2.8950606109814D-04  4.5929774922274D-04
   169  1.6800000000000D+00  1.4176630728956D-04  3.0419012063061D-04
   170  1.6900000000000D+00  8.1135472866096D-05  1.9469091941868D-04
   171  1.7000000000000D+00  6.6301839210670D-05  1.2361125357657D-04
   172  1.7100000000000D+00  7.2723957235881D-05  8.6823759056120D-05
   173  1.7200000000000D+00  8.4354158359967D-05  7.6659937121228D-05
   174  1.7300000000000D+00  7.8006180584134D-05  6.6292158013855D-05
   175  1.7400000000000D+00  4.0948399562538D-05  3.4252858651793D-05
   176  1.7500000000000D+00  1.8362809417837D-06  1.5404444484285D-06
   177  1.7600000000000D+00 -8.5129959671644D-06 -6.8872066491149D-06
   178  1.7700000000000D+00 -1.6079202986452D-06 -1.2957894103007D-06
   179  1.7800000000000D+00  1.8568878765776D-06  1.5044551752551D-06
   180  1.7900000000000D+00  7.0178299771961D-07  5.6699939275172D-07
   181  1.8000000000000D+00 -2.0120314005628D-07 -1.7108324009799D-07
   182  1.8100000000000D+00 -1.2566238767747D-07 -1.0685085946619D-07
   183  1.8200000000000D+00  0.0000000000000D+00  0.0000000000000D+00
   184  1.8300000000000D+00  0.0000000000000D+00  0.0000000000000D+00
   185  1.8400000000000D+00  0.0000000000000D+00  0.0000000000000D+00
   186  1.8500000000000D+00  0.0000000000000D+00  0.0000000000000D+00
   187  1.8600000000000D+00  0.0000000000000D+00  0.0000000000000D+00
   188  1.8700000000000D+00  0.0000000000000D+00  0.0000000000000D+00
   189  1.8800000000000D+00  0.0000000000000D+00  0.0000000000000D+00
   190  1.8900000000000D+00  0.0000000000000D+00  0.0000000000000D+00
   191  1.9000000000000D+00  0.0000000000000D+00  0.0000000000000D+00
   192  1.9100000000000D+00  0.0000000000000D+00  0.0000000000000D+00
   193  1.9200000000000D+00  0.0000000000000D+00  0.0000000000000D+00
   194  1.9300000000000D+00  0.0000000000000D+00  0.0000000000000D+00
   195  1.9400000000000D+00  0.0000000000000D+00  0.0000000000000D+00
   196  1.9500000000000D+00  0.0000000000000D+00  0.0000000000000D+00
   197  1.9600000000000D+00  0.0000000000000D+00  0.0000000000000D+00
   198  1.9700000000000D+00  0.0000000000000D+00  0.0000000000000D+00
   199  1.9800000000000D+00  0.0000000000000D+00  0.0000000000000D+00
   200  1.9900000000000D+00  0.0000000000000D+00  0.0000000000000D+00
   201  2.0000000000000D+00  0.0000000000000D+00  0.0000000000000D+00
   202  2.0100000000000D+00  0.0000000000000D+00  0.0000000000000D+00
   203  2.0200000000000D+00  0.0000000000000D+00  0.0000000000000D+00
   204  2.0300000000000D+00  0.0000000000000D+00  0.0000000000000D+00
   205  2.0400000000000D+00  0.0000000000000D+00  0.0000000000000D+00
   206  2.0500000000000D+00  0.0000000000000D+00  0.0000000000000D+00
   207  2.0600000000000D+00  0.0000000000000D+00  0.0000000000000D+00
   208  2.0700000000000D+00  0.0000000000000D+00  0.0000000000000D+00
   209  2.0800000000000D+00  0.0000000000000D+00  0.0000000000000D+00
   210  2.0900000000000D+00  0.0000000000000D+00  0.0000000000000D+00
   211  2.1000000000000D+00  0.0000000000000D+00  0.0000000000000D+00
   212  2.1100000000000D+00  0.0000000000000D+00  0.0000000000000D+00
   213  2.1200000000000D+00  0.0000000000000D+00  0.0000000000000D+00
   214  2.1300000000000D+00  0.0000000000000D+00  0.0000000000000D+00
   215  2.1400000000000D+00  0.0000000000000D+00  0.0000000000000D+00
   216  2.1500000000000D+00  0.0000000000000D+00  0.0000000000000D+00
   217  2.1600000000000D+00  0.0000000000000D+00  0.0000000000000D+00
   218  2.1700000000000D+00  0.0000000000000D+00  0.0000000000000D+00
   219  2.1800000000000D+00  0.0000000000000D+00  0.0000000000000D+00
   220  2.1900000000000D+00  0.0000000000000D+00  0.0000000000000D+00
   221  2.2000000000000D+00  0.0000000000000D+00  0.0000000000000D+00
   222  2.2100000000000D+00  0.0000000000000D+00  0.0000000000000D+00
   223  2.2200000000000D+00  0.0000000000000D+00  0.0000000000000D+00
   224  2.2300000000000D+00  0.0000000000000D+00  0.0000000000000D+00
   225  2.2400000000000D+00  0.0000000000000D+00  0.0000000000000D+00
   226  2.2500000000000D+00  0.0000000000000D+00  0.0000000000000D+00
   227  2.2600000000000D+00  0.0000000000000D+00  0.0000000000000D+00
   228  2.2700000000000D+00  0.0000000000000D+00  0.0000000000000D+00
   229  2.2800000000000D+00  0.0000000000000D+00  0.0000000000000D+00
   230  2.2900000000000D+00  0.0000000000000D+00  0.0000000000000D+00
   231  2.3000000000000D+00  0.0000000000000D+00  0.0000000000000D+00
   232  2.3100000000000D+00  0.0000000000000D+00  0.0000000000000D+00
   233  2.3200000000000D+00  0.0000000000000D+00  0.0000000000000D+00
   234  2.3300000000000D+00  0.0000000000000D+00  0.0000000000000D+00
   235  2.3400000000000D+00  0.0000000000000D+00  0.0000000000000D+00
   236  2.3500000000000D+00  0.0000000000000D+00  0.0000000000000D+00
   237  2.3600000000000D+00  0.0000000000000D+00  0.0000000000000D+00
   238  2.3700000000000D+00  0.0000000000000D+00  0.0000000000000D+00
   239  2.3800000000000D+00  0.0000000000000D+00  0.0000000000000D+00
   240  2.3900000000000D+00  0.0000000000000D+00  0.0000000000000D+00
   241  2.4000000000000D+00  0.0000000000000D+00  0.0000000000000D+00
   242  2.4100000000000D+00  0.0000000000000D+00  0.0000000000000D+00
   243  2.4200000000000D+00  0.0000000000000D+00  0.0000000000000D+00
   244  2.4300000000000D+00  0.0000000000000D+00  0.0000000000000D+00
   245  2.4400000000000D+00  0.0000000000000D+00  0.0000000000000D+00
   246  2.4500000000000D+00  0.0000000000000D+00  0.0000000000000D+00
   247  2.4600000000000D+00  0.0000000000000D+00  0.0000000000000D+00
   248  2.4700000000000D+00  0.0000000000000D+00  0.0000000000000D+00
   249  2.4800000000000D+00  0.0000000000000D+00  0.0000000000000D+00
   250  2.4900000000000D+00  0.0000000000000D+00  0.0000000000000D+00
   251  2.5000000000000D+00  0.0000000000000D+00  0.0000000000000D+00
   252  2.5100000000000D+00  0.0000000000000D+00  0.0000000000000D+00
   253  2.5200000000000D+00  0.0000000000000D+00  0.0000000000000D+00
   254  2.5300000000000D+00  0.0000000000000D+00  0.0000000000000D+00
   255  2.5400000000000D+00  0.0000000000000D+00  0.0000000000000D+00
   256  2.5500000000000D+00  0.0000000000000D+00  0.0000000000000D+00
   257  2.5600000000000D+00  0.0000000000000D+00  0.0000000000000D+00
   258  2.5700000000000D+00  0.0000000000000D+00  0.0000000000000D+00
   259  2.5800000000000D+00  0.0000000000000D+00  0.0000000000000D+00
   260  2.5900000000000D+00  0.0000000000000D+00  0.0000000000000D+00
   261  2.6000000000000D+00  0.0000000000000D+00  0.0000000000000D+00
   262  2.6100000000000D+00  0.0000000000000D+00  0.0000000000000D+00
   263  2.6200000000000D+00  0.0000000000000D+00  0.0000000000000D+00
   264  2.6300000000000D+00  0.0000000000000D+00  0.0000000000000D+00
   265  2.6400000000000D+00  0.0000000000000D+00  0.0000000000000D+00
   266  2.6500000000000D+00  0.0000000000000D+00  0.0000000000000D+00
   267  2.6600000000000D+00  0.0000000000000D+00  0.0000000000000D+00
   268  2.6700000000000D+00  0.0000000000000D+00  0.0000000000000D+00
   269  2.6800000000000D+00  0.0000000000000D+00  0.0000000000000D+00
   270  2.6900000000000D+00  0.0000000000000D+00  0.0000000000000D+00
   271  2.7000000000000D+00  0.0000000000000D+00  0.0000000000000D+00
   272  2.7100000000000D+00  0.0000000000000D+00  0.0000000000000D+00
   273  2.7200000000000D+00  0.0000000000000D+00  0.0000000000000D+00
   274  2.7300000000000D+00  0.0000000000000D+00  0.0000000000000D+00
   275  2.7400000000000D+00  0.0000000000000D+00  0.0000000000000D+00
   276  2.7500000000000D+00  0.0000000000000D+00  0.0000000000000D+00
   277  2.7600000000000D+00  0.0000000000000D+00  0.0000000000000D+00
   278  2.7700000000000D+00  0.0000000000000D+00  0.0000000000000D+00
   279  2.7800000000000D+00  0.0000000000000D+00  0.0000000000000D+00
   280  2.7900000000000D+00  0.0000000000000D+00  0.0000000000000D+00
   281  2.8000000000000D+00  0.0000000000000D+00  0.0000000000000D+00
   282  2.8100000000000D+00  0.0000000000000D+00  0.0000000000000D+00
   283  2.8200000000000D+00  0.0000000000000D+00  0.0000000000000D+00
   284  2.8300000000000D+00  0.0000000000000D+00  0.0000000000000D+00
   285  2.8400000000000D+00  0.0000000000000D+00  0.0000000000000D+00
   286  2.8500000000000D+00  0.0000000000000D+00  0.0000000000000D+00
   287  2.8600000000000D+00  0.0000000000000D+00  0.0000000000000D+00
   288  2.8700000000000D+00  0.0000000000000D+00  0.0000000000000D+00
   289  2.8800000000000D+00  0.0000000000000D+00  0.0000000000000D+00
   290  2.8900000000000D+00  0.0000000000000D+00  0.0000000000000D+00
   291  2.9000000000000D+00  0.0000000000000D+00  0.0000000000000D+00
   292  2.9100000000000D+00  0.0000000000000D+00  0.0000000000000D+00
   293  2.9200000000000D+00  0.0000000000000D+00  0.0000000000000D+00
   294  2.9300000000000D+00  0.0000000000000D+00  0.0000000000000D+00
   295  2.9400000000000D+00  0.0000000000000D+00  0.0000000000000D+00
   296  2.9500000000000D+00  0.0000000000000D+00  0.0000000000000D+00
   297  2.9600000000000D+00  0.0000000000000D+00  0.0000000000000D+00
   298  2.9700000000000D+00  0.0000000000000D+00  0.0000000000000D+00
   299  2.9800000000000D+00  0.0000000000000D+00  0.0000000000000D+00
   300  2.9900000000000D+00  0.0000000000000D+00  0.0000000000000D+00
   301  3.0000000000000D+00  0.0000000000000D+00  0.0000000000000D+00
   302  3.0100000000000D+00  0.0000000000000D+00  0.0000000000000D+00
   303  3.0200000000000D+00  0.0000000000000D+00  0.0000000000000D+00
   304  3.0300000000000D+00  0.0000000000000D+00  0.0000000000000D+00
   305  3.0400000000000D+00  0.0000000000000D+00  0.0000000000000D+00
   306  3.0500000000000D+00  0.0000000000000D+00  0.0000000000000D+00
   307  3.0600000000000D+00  0.0000000000000D+00  0.0000000000000D+00
   308  3.0700000000000D+00  0.0000000000000D+00  0.0000000000000D+00
   309  3.0800000000000D+00  0.0000000000000D+00  0.0000000000000D+00
   310  3.0900000000000D+00  0.0000000000000D+00  0.0000000000000D+00
   311  3.1000000000000D+00  0.0000000000000D+00  0.0000000000000D+00
   312  3.1100000000000D+00  0.0000000000000D+00  0.0000000000000D+00
   313  3.1200000000000D+00  0.0000000000000D+00  0.0000000000000D+00
   314  3.1300000000000D+00  0.0000000000000D+00  0.0000000000000D+00
   315  3.1400000000000D+00  0.0000000000000D+00  0.0000000000000D+00
   316  3.1500000000000D+00  0.0000000000000D+00  0.0000000000000D+00
   317  3.1600000000000D+00  0.0000000000000D+00  0.0000000000000D+00
   318  3.1700000000000D+00  0.0000000000000D+00  0.0000000000000D+00
   319  3.1800000000000D+00  0.0000000000000D+00  0.0000000000000D+00
   320  3.1900000000000D+00  0.0000000000000D+00  0.0000000000000D+00
   321  3.2000000000000D+00  0.0000000000000D+00  0.0000000000000D+00
   322  3.2100000000000D+00  0.0000000000000D+00  0.0000000000000D+00
   323  3.2200000000000D+00  0.0000000000000D+00  0.0000000000000D+00
   324  3.2300000000000D+00  0.0000000000000D+00  0.0000000000000D+00
   325  3.2400000000000D+00  0.0000000000000D+00  0.0000000000000D+00
   326  3.2500000000000D+00  0.0000000000000D+00  0.0000000000000D+00
   327  3.2600000000000D+00  0.0000000000000D+00  0.0000000000000D+00
   328  3.2700000000000D+00  0.0000000000000D+00  0.0000000000000D+00
   329  3.2800000000000D+00  0.0000000000000D+00  0.0000000000000D+00
   330  3.2900000000000D+00  0.0000000000000D+00  0.0000000000000D+00
   331  3.3000000000000D+00  0.0000000000000D+00  0.0000000000000D+00
   332  3.3100000000000D+00  0.0000000000000D+00  0.0000000000000D+00
   333  3.3200000000000D+00  0.0000000000000D+00  0.0000000000000D+00
   334  3.3300000000000D+00  0.0000000000000D+00  0.0000000000000D+00
   335  3.3400000000000D+00  0.0000000000000D+00  0.0000000000000D+00
   336  3.3500000000000D+00  0.0000000000000D+00  0.0000000000000D+00
   337  3.3600000000000D+00  0.0000000000000D+00  0.0000000000000D+00
   338  3.3700000000000D+00  0.0000000000000D+00  0.0000000000000D+00
   339  3.3800000000000D+00  0.0000000000000D+00  0.0000000000000D+00
   340  3.3900000000000D+00  0.0000000000000D+00  0.0000000000000D+00
   341  3.4000000000000D+00  0.0000000000000D+00  0.0000000000000D+00
   342  3.4100000000000D+00  0.0000000000000D+00  0.0000000000000D+00
   343  3.4200000000000D+00  0.0000000000000D+00  0.0000000000000D+00
   344  3.4300000000000D+00  0.0000000000000D+00  0.0000000000000D+00
   345  3.4400000000000D+00  0.0000000000000D+00  0.0000000000000D+00
   346  3.4500000000000D+00  0.0000000000000D+00  0.0000000000000D+00
   347  3.4600000000000D+00  0.0000000000000D+00  0.0000000000000D+00
   348  3.4700000000000D+00  0.0000000000000D+00  0.0000000000000D+00
   349  3.4800000000000D+00  0.0000000000000D+00  0.0000000000000D+00
   350  3.4900000000000D+00  0.0000000000000D+00  0.0000000000000D+00
   351  3.5000000000000D+00  0.0000000000000D+00  0.0000000000000D+00
   352  3.5100000000000D+00  0.0000000000000D+00  0.0000000000000D+00
   353  3.5200000000000D+00  0.0000000000000D+00  0.0000000000000D+00
   354  3.5300000000000D+00  0.0000000000000D+00  0.0000000000000D+00
   355  3.5400000000000D+00  0.0000000000000D+00  0.0000000000000D+00
   356  3.5500000000000D+00  0.0000000000000D+00  0.0000000000000D+00
   357  3.5600000000000D+00  0.0000000000000D+00  0.0000000000000D+00
   358  3.5700000000000D+00  0.0000000000000D+00  0.0000000000000D+00
   359  3.5800000000000D+00  0.0000000000000D+00  0.0000000000000D+00
   360  3.5900000000000D+00  0.0000000000000D+00  0.0000000000000D+00
   361  3.6000000000000D+00  0.0000000000000D+00  0.0000000000000D+00
   362  3.6100000000000D+00  0.0000000000000D+00  0.0000000000000D+00
   363  3.6200000000000D+00  0.0000000000000D+00  0.0000000000000D+00
   364  3.6300000000000D+00  0.0000000000000D+00  0.0000000000000D+00
   365  3.6400000000000D+00  0.0000000000000D+00  0.0000000000000D+00
   366  3.6500000000000D+00  0.0000000000000D+00  0.0000000000000D+00
   367  3.6600000000000D+00  0.0000000000000D+00  0.0000000000000D+00
   368  3.6700000000000D+00  0.0000000000000D+00  0.0000000000000D+00
   369  3.6800000000000D+00  0.0000000000000D+00  0.0000000000000D+00
   370  3.6900000000000D+00  0.0000000000000D+00  0.0000000000000D+00
   371  3.7000000000000D+00  0.0000000000000D+00  0.0000000000000D+00
   372  3.7100000000000D+00  0.0000000000000D+00  0.0000000000000D+00
   373  3.7200000000000D+00  0.0000000000000D+00  0.0000000000000D+00
   374  3.7300000000000D+00  0.0000000000000D+00  0.0000000000000D+00
   375  3.7400000000000D+00  0.0000000000000D+00  0.0000000000000D+00
   376  3.7500000000000D+00  0.0000000000000D+00  0.0000000000000D+00
   377  3.7600000000000D+00  0.0000000000000D+00  0.0000000000000D+00
   378  3.7700000000000D+00  0.0000000000000D+00  0.0000000000000D+00
   379  3.7800000000000D+00  0.0000000000000D+00  0.0000000000000D+00
   380  3.7900000000000D+00  0.0000000000000D+00  0.0000000000000D+00
   381  3.8000000000000D+00  0.0000000000000D+00  0.0000000000000D+00
   382  3.8100000000000D+00  0.0000000000000D+00  0.0000000000000D+00
   383  3.8200000000000D+00  0.0000000000000D+00  0.0000000000000D+00
   384  3.8300000000000D+00  0.0000000000000D+00  0.0000000000000D+00
   385  3.8400000000000D+00  0.0000000000000D+00  0.0000000000000D+00
   386  3.8500000000000D+00  0.0000000000000D+00  0.0000000000000D+00
   387  3.8600000000000D+00  0.0000000000000D+00  0.0000000000000D+00
   388  3.8700000000000D+00  0.0000000000000D+00  0.0000000000000D+00
   389  3.8800000000000D+00  0.0000000000000D+00  0.0000000000000D+00
   390  3.8900000000000D+00  0.0000000000000D+00  0.0000000000000D+00
   391  3.9000000000000D+00  0.0000000000000D+00  0.0000000000000D+00
   392  3.9100000000000D+00  0.0000000000000D+00  0.0000000000000D+00
   393  3.9200000000000D+00  0.0000000000000D+00  0.0000000000000D+00
   394  3.9300000000000D+00  0.0000000000000D+00  0.0000000000000D+00
   395  3.9400000000000D+00  0.0000000000000D+00  0.0000000000000D+00
   396  3.9500000000000D+00  0.0000000000000D+00  0.0000000000000D+00
   397  3.9600000000000D+00  0.0000000000000D+00  0.0000000000000D+00
   398  3.9700000000000D+00  0.0000000000000D+00  0.0000000000000D+00
   399  3.9800000000000D+00  0.0000000000000D+00  0.0000000000000D+00
   400  3.9900000000000D+00  0.0000000000000D+00  0.0000000000000D+00
   401  4.0000000000000D+00  0.0000000000000D+00  0.0000000000000D+00
   402  4.0100000000000D+00  0.0000000000000D+00  0.0000000000000D+00
   403  4.0200000000000D+00  0.0000000000000D+00  0.0000000000000D+00
   404  4.0300000000000D+00  0.0000000000000D+00  0.0000000000000D+00
   405  4.0400000000000D+00  0.0000000000000D+00  0.0000000000000D+00
   406  4.0500000000000D+00  0.0000000000000D+00  0.0000000000000D+00
   407  4.0600000000000D+00  0.0000000000000D+00  0.0000000000000D+00
   408  4.0700000000000D+00  0.0000000000000D+00  0.0000000000000D+00
   409  4.0800000000000D+00  0.0000000000000D+00  0.0000000000000D+00
   410  4.0900000000000D+00  0.0000000000000D+00  0.0000000000000D+00
   411  4.1000000000000D+00  0.0000000000000D+00  0.0000000000000D+00
   412  4.1100000000000D+00  0.0000000000000D+00  0.0000000000000D+00
   413  4.1200000000000D+00  0.0000000000000D+00  0.0000000000000D+00
   414  4.1300000000000D+00  0.0000000000000D+00  0.0000000000000D+00
   415  4.1400000000000D+00  0.0000000000000D+00  0.0000000000000D+00
   416  4.1500000000000D+00  0.0000000000000D+00  0.0000000000000D+00
   417  4.1600000000000D+00  0.0000000000000D+00  0.0000000000000D+00
   418  4.1700000000000D+00  0.0000000000000D+00  0.0000000000000D+00
   419  4.1800000000000D+00  0.0000000000000D+00  0.0000000000000D+00
   420  4.1900000000000D+00  0.0000000000000D+00  0.0000000000000D+00
   421  4.2000000000000D+00  0.0000000000000D+00  0.0000000000000D+00
   422  4.2100000000000D+00  0.0000000000000D+00  0.0000000000000D+00