V     ONCVPSP-3.3.1  r_core=   1.72984   1.99606   2.02001
     23.0000     13.0000      210904    zatom,zion,pspd
     8      11   2     4   600     0    pspcod,pspxc,lmax,lloc,mmax,r2well
  5.99000000  0.00000000  0.00000000    rchrg fchrg qchrg
     2     2     2     0     0    nproj
     1     1           extension_switch
   0                         3.6362738007703D+00 -5.0991416345571D-01
     1  0.0000000000000D+00  3.2960512097446D-10  7.1074035545848D-10
     2  1.0000000000000D-02  5.8480848562260D-02 -8.1577844883495D-03
     3  2.0000000000000D-02  1.1691696861005D-01 -1.6115847256797D-02
     4  3.0000000000000D-02  1.7526300048966D-01 -2.3676385627568D-02
     5  4.0000000000000D-02  2.3347233066725D-01 -3.0645416336297D-02
     6  5.0000000000000D-02  2.9149648570010D-01 -3.6834638743659D-02
     7  6.0000000000000D-02  3.4928455106605D-01 -4.2063242760980D-02
     8  7.0000000000000D-02  4.0678262274699D-01 -4.6159643902562D-02
     9  8.0000000000000D-02  4.6393329913291D-01 -4.8963128588243D-02
    10  9.0000000000000D-02  5.2067522040655D-01 -5.0325393695091D-02
    11  1.0000000000000D-01  5.7694266209027D-01 -5.0111965388748D-02
    12  1.1000000000000D-01  6.3266518888948D-01 -4.8203483442660D-02
    13  1.2000000000000D-01  6.8776737435733D-01 -4.4496838565984D-02
    14  1.3000000000000D-01  7.4216859123802D-01 -3.8906151695454D-02
    15  1.4000000000000D-01  7.9578287662840D-01 -3.1363585749072D-02
    16  1.5000000000000D-01  8.4851887533523D-01 -2.1819981975196D-02
    17  1.6000000000000D-01  9.0027986400689D-01 -1.0245314743449D-02
    18  1.7000000000000D-01  9.5096385779004D-01  3.3710396026095D-03
    19  1.8000000000000D-01  1.0004638004126D+00  1.9020222394528D-02
    20  1.9000000000000D-01  1.0486678377315D+00  3.6674001510674D-02
    21  2.0000000000000D-01  1.0954596739159D+00  5.6285068341654D-02
    22  2.1000000000000D-01  1.1407190085724D+00  7.7787519880771D-02
    23  2.2000000000000D-01  1.1843220522659D+00  1.0109752115944D-01
    24  2.3000000000000D-01  1.2261421170557D+00  1.2611414148209D-01
    25  2.4000000000000D-01  1.2660502778618D+00  1.5272035621293D-01
    26  2.5000000000000D-01  1.3039160997065D+00  1.8078420424450D-01
    27  2.6000000000000D-01  1.3396084251474D+00  2.1016008975155D-01
    28  2.7000000000000D-01  1.3729962155434D+00  2.4069021541780D-01
    29  2.8000000000000D-01  1.4039494391721D+00  2.7220613303209D-01
    30  2.9000000000000D-01  1.4323399986609D+00  3.0453039619634D-01
    31  3.0000000000000D-01  1.4580426897029D+00  3.3747829888299D-01
    32  3.1000000000000D-01  1.4809361826126D+00  3.7085968273271D-01
    33  3.2000000000000D-01  1.5009040179363D+00  4.0448079530431D-01
    34  3.3000000000000D-01  1.5178356070744D+00  4.3814618098292D-01
    35  3.4000000000000D-01  1.5316272286948D+00  4.7166058592623D-01
    36  3.5000000000000D-01  1.5421830116306D+00  5.0483085828474D-01
    37  3.6000000000000D-01  1.5494158949477D+00  5.3746782497116D-01
    38  3.7000000000000D-01  1.5532485559554D+00  5.6938812647869D-01
    39  3.8000000000000D-01  1.5536142971003D+00  6.0041599165225D-01
    40  3.9000000000000D-01  1.5504578829418D+00  6.3038493490101D-01
    41  4.0000000000000D-01  1.5437363187453D+00  6.5913935909564D-01
    42  4.1000000000000D-01  1.5334195626483D+00  6.8653604831535D-01
    43  4.2000000000000D-01  1.5194911638508D+00  7.1244553568663D-01
    44  4.3000000000000D-01  1.5019488198528D+00  7.3675333277955D-01
    45  4.4000000000000D-01  1.4808048463931D+00  7.5936100838474D-01
    46  4.5000000000000D-01  1.4560865544470D+00  7.8018710597285D-01
    47  4.6000000000000D-01  1.4278365293926D+00  7.9916789072345D-01
    48  4.7000000000000D-01  1.3961128082570D+00  8.1625791868674D-01
    49  4.8000000000000D-01  1.3609889518023D+00  8.3143042239253D-01
    50  4.9000000000000D-01  1.3225540090877D+00  8.4467750902968D-01
    51  5.0000000000000D-01  1.2809123730502D+00  8.5601016916820D-01
    52  5.1000000000000D-01  1.2361835265711D+00  8.6545809586638D-01
    53  5.2000000000000D-01  1.1885016794271D+00  8.7306931588004D-01
    54  5.3000000000000D-01  1.1380152974603D+00  8.7890963654843D-01
    55  5.4000000000000D-01  1.0848865262286D+00  8.8306191375878D-01
    56  5.5000000000000D-01  1.0292905123095D+00  8.8562514816410D-01
    57  5.6000000000000D-01  9.7141462631614D-01  8.8671341853389D-01
    58  5.7000000000000D-01  9.1145759254295D-01  8.8645466273852D-01
    59  5.8000000000000D-01  8.4962853096939D-01  8.8498931838139D-01
    60  5.9000000000000D-01  7.8614591812226D-01  8.8246883649789D-01
    61  6.0000000000000D-01  7.2123647400665D-01  8.7905408300368D-01
    62  6.1000000000000D-01  6.5513398297110D-01  8.7491364370450D-01
    63  6.2000000000000D-01  5.8807805695589D-01  8.7022204964603D-01
    64  6.3000000000000D-01  5.2031285008756D-01  8.6515794038855D-01
    65  6.4000000000000D-01  4.5208573401916D-01  8.5990218342325D-01
    66  6.5000000000000D-01  3.8364594376979D-01  8.5463596839678D-01
    67  6.6000000000000D-01  3.1524320408986D-01  8.4953889508080D-01
    68  6.7000000000000D-01  2.4712634656130D-01  8.4478707410074D-01
    69  6.8000000000000D-01  1.7954192773941D-01  8.4055125933224D-01
    70  6.9000000000000D-01  1.1273285864938D-01  8.3699503057608D-01
    71  7.0000000000000D-01  4.6937055869162D-02  8.3427304464335D-01
    72  7.1000000000000D-01 -1.7613875740944D-02  8.3252937231929D-01
    73  7.2000000000000D-01 -8.0695918856938D-02  8.3189593784381D-01
    74  7.3000000000000D-01 -1.4209386859567D-01  8.3249107654159D-01
    75  7.4000000000000D-01 -2.0160249746448D-01  8.3441822507993D-01
    76  7.5000000000000D-01 -2.5902765181453D-01  8.3776475753082D-01
    77  7.6000000000000D-01 -3.1418727182794D-01  8.4260097898008D-01
    78  7.7000000000000D-01 -3.6691232770857D-01  8.4897928687364D-01
    79  7.8000000000000D-01 -4.1704766544510D-01  8.5693350863914D-01
    80  7.9000000000000D-01 -4.6445275627019D-01  8.6647842238046D-01
    81  8.0000000000000D-01 -5.0900234474320D-01  8.7760946563078D-01
    82  8.1000000000000D-01 -5.5058699122512D-01  8.9030263529352D-01
    83  8.2000000000000D-01 -5.8911350539090D-01  9.0451458000608D-01
    84  8.3000000000000D-01 -6.2450526832394D-01  9.2018288425615D-01
    85  8.4000000000000D-01 -6.5670244165415D-01  9.3722654167989D-01
    86  8.5000000000000D-01 -6.8566206312514D-01  9.5554661309564D-01
    87  8.6000000000000D-01 -7.1135802890047D-01  9.7502706299487D-01
    88  8.7000000000000D-01 -7.3378096383377D-01  9.9553576644129D-01
    89  8.8000000000000D-01 -7.5293798182618D-01  1.0169256766387D+00
    90  8.9000000000000D-01 -7.6885233926772D-01  1.0390361418338D+00
    91  9.0000000000000D-01 -7.8156298539980D-01  1.0616943587387D+00
    92  9.1000000000000D-01 -7.9112401423643D-01  1.0847169483048D+00
    93  9.2000000000000D-01 -7.9760402343485D-01  1.1079116384669D+00
    94  9.3000000000000D-01 -8.0108538620580D-01  1.1310790374177D+00
    95  9.4000000000000D-01 -8.0166344299398D-01  1.1540144800792D+00
    96  9.5000000000000D-01 -7.9944562023401D-01  1.1765099297166D+00
    97  9.6000000000000D-01 -7.9455048398894D-01  1.1983559161030D+00
    98  9.7000000000000D-01 -7.8710673671663D-01  1.2193434912836D+00
    99  9.8000000000000D-01 -7.7725216575719D-01  1.2392661838313D+00
   100  9.9000000000000D-01 -7.6513255241204D-01  1.2579219325120D+00
   101  1.0000000000000D+00 -7.5090055067780D-01  1.2751149804951D+00
   102  1.0100000000000D+00 -7.3471454481003D-01  1.2906577116559D+00
   103  1.0200000000000D+00 -7.1673749491646D-01  1.3043724111238D+00
   104  1.0300000000000D+00 -6.9713577973029D-01  1.3160929329760D+00
   105  1.0400000000000D+00 -6.7607804557994D-01  1.3256662589385D+00
   106  1.0500000000000D+00 -6.5373407035455D-01  1.3329539330726D+00
   107  1.0600000000000D+00 -6.3027365098221D-01  1.3378333586604D+00
   108  1.0700000000000D+00 -6.0586552257203D-01  1.3401989449202D+00
   109  1.0800000000000D+00 -5.8067631693706D-01  1.3399630927183D+00
   110  1.0900000000000D+00 -5.5486956776693D-01  1.3370570099464D+00
   111  1.1000000000000D+00 -5.2860476910580D-01  1.3314313491548D+00
   112  1.1100000000000D+00 -5.0203649325154D-01  1.3230566616428D+00
   113  1.1200000000000D+00 -4.7531357347329D-01  1.3119236642606D+00
   114  1.1300000000000D+00 -4.4857835639559D-01  1.2980433167094D+00
   115  1.1400000000000D+00 -4.2196602804217D-01  1.2814467094152D+00
   116  1.1500000000000D+00 -3.9560401688187D-01  1.2621847637166D+00
   117  1.1600000000000D+00 -3.6961147636857D-01  1.2403277482121D+00
   118  1.1700000000000D+00 -3.4409884892165D-01  1.2159646164536D+00
   119  1.1800000000000D+00 -3.1916751227349D-01  1.1892021735617D+00
   120  1.1900000000000D+00 -2.9490950848722D-01  1.1601640807056D+00
   121  1.2000000000000D+00 -2.7140735515768D-01  1.1289897080822D+00
   122  1.2100000000000D+00 -2.4873393775132D-01  1.0958328482382D+00
   123  1.2200000000000D+00 -2.2695248105729D-01  1.0608603035038D+00
   124  1.2300000000000D+00 -2.0611659718948D-01  1.0242503621945D+00
   125  1.2400000000000D+00 -1.8627040719406D-01  9.8619117900367D-01
   126  1.2500000000000D+00 -1.6744873232906D-01  9.4687907660743D-01
   127  1.2600000000000D+00 -1.4967735075528D-01  9.0651678576610D-01
   128  1.2700000000000D+00 -1.3297331507127D-01  8.6531164169435D-01
   129  1.2800000000000D+00 -1.1734532541157D-01  8.2347375525069D-01
   130  1.2900000000000D+00 -1.0279415259144D-01  7.8121417723632D-01
   131  1.3000000000000D+00 -8.9313105657677D-02  7.3874307431127D-01
   132  1.3100000000000D+00 -7.6888537697875D-02  6.9626793496938D-01
   133  1.3200000000000D+00 -6.5500383805310D-02  6.5399182290968D-01
   134  1.3300000000000D+00 -5.5122724974525D-02  6.1211169574550D-01
   135  1.3400000000000D+00 -4.5724371555407D-02  5.7081680527820D-01
   136  1.3500000000000D+00 -3.7269460213533D-02  5.3028719426112D-01
   137  1.3600000000000D+00 -2.9718058013758D-02  4.9069230572839D-01
   138  1.3700000000000D+00 -2.3026767895054D-02  4.5218971645129D-01
   139  1.3800000000000D+00 -1.7149329748281D-02  4.1492400714723D-01
   140  1.3900000000000D+00 -1.2037211366079D-02  3.7902578074651D-01
   141  1.4000000000000D+00 -7.6401847238744D-03  3.4461083498150D-01
   142  1.4100000000000D+00 -3.9068820623008D-03  3.1177949975059D-01
   143  1.4200000000000D+00 -7.8532799942116D-04  2.8061614196876D-01
   144  1.4300000000000D+00  1.7765563072483D-03  2.5118884205487D-01
   145  1.4400000000000D+00  3.8304810133485D-03  2.2354924585677D-01
   146  1.4500000000000D+00  5.4273491547051D-03  1.9773258751666D-01
   147  1.4600000000000D+00  6.6168559463248D-03  1.7375788689264D-01
   148  1.4700000000000D+00  7.4471262897127D-03  1.5162831269343D-01
   149  1.4800000000000D+00  7.9643927358322D-03  1.3133170889301D-01
   150  1.4900000000000D+00  8.2127147504960D-03  1.1284127680482D-01
   151  1.5000000000000D+00  8.2337388054678D-03  9.6116401677687D-02
   152  1.5100000000000D+00  8.0665007500779D-03  8.1103617966025D-02
   153  1.5200000000000D+00  7.7472677650007D-03  6.7737695654146D-02
   154  1.5300000000000D+00  7.3094210654897D-03  5.5942840752741D-02
   155  1.5400000000000D+00  6.7833758648904D-03  4.5633990392915D-02
   156  1.5500000000000D+00  6.1965382605019D-03  3.6718191489755D-02
   157  1.5600000000000D+00  5.5732958555211D-03  2.9096044362054D-02
   158  1.5700000000000D+00  4.9350400831405D-03  2.2663196390241D-02
   159  1.5800000000000D+00  4.3002173583442D-03  1.7311867661631D-02
   160  1.5900000000000D+00  3.6844059387497D-03  1.2932392372571D-02
   161  1.6000000000000D+00  3.1004155798586D-03  9.4147570994284D-03
   162  1.6100000000000D+00  2.5584065767776D-03  6.6501213826797D-03
   163  1.6200000000000D+00  2.0660248183969D-03  4.5322994210090D-03
   164  1.6300000000000D+00  1.6285499711580D-03  2.9591928459741D-03
   165  1.6400000000000D+00  1.2490526063925D-03  1.8341500179722D-03
   166  1.6500000000000D+00  9.2855879468932D-04  1.0672485341028D-03
   167  1.6600000000000D+00  6.6621762005491D-04  5.7647418036076D-04
   168  1.6700000000000D+00  4.5947501468515D-04  2.8881654283453D-04
   169  1.6800000000000D+00  3.0428900148322D-04  1.4131370210593D-04
   170  1.6900000000000D+00  1.9474399706819D-04  8.0807330057918D-05
   171  1.7000000000000D+00  1.2364034186839D-04  6.6032124963104D-05
   172  1.7100000000000D+00  8.6843284577591D-05  7.2466459029728D-05
   173  1.7200000000000D+00  7.6678325327925D-05  8.4081168150494D-05
   174  1.7300000000000D+00  6.6309038732441D-05  7.7759959902136D-05
   175  1.7400000000000D+00  3.4261849522864D-05  4.0820333985463D-05
   176  1.7500000000000D+00  1.5408554619572D-06  1.8305495476730D-06
   177  1.7600000000000D+00 -6.8890427455526D-06 -8.4867171757583D-06
   178  1.7700000000000D+00 -1.2961371953611D-06 -1.6029700197420D-06
   179  1.7800000000000D+00  1.5048452892675D-06  1.8511073563430D-06
   180  1.7900000000000D+00  5.6714658143922D-07  6.9960008564130D-07
   181  1.8000000000000D+00 -1.7112677717067D-07 -2.0056789933301D-07
   182  1.8100000000000D+00 -1.0687805075408D-07 -1.2526564503213D-07
   183  1.8200000000000D+00  0.0000000000000D+00  0.0000000000000D+00
   184  1.8300000000000D+00  0.0000000000000D+00  0.0000000000000D+00
   185  1.8400000000000D+00  0.0000000000000D+00  0.0000000000000D+00
   186  1.8500000000000D+00  0.0000000000000D+00  0.0000000000000D+00
   187  1.8600000000000D+00  0.0000000000000D+00  0.0000000000000D+00
   188  1.8700000000000D+00  0.0000000000000D+00  0.0000000000000D+00
   189  1.8800000000000D+00  0.0000000000000D+00  0.0000000000000D+00
   190  1.8900000000000D+00  0.0000000000000D+00  0.0000000000000D+00
   191  1.9000000000000D+00  0.0000000000000D+00  0.0000000000000D+00
   192  1.9100000000000D+00  0.0000000000000D+00  0.0000000000000D+00
   193  1.9200000000000D+00  0.0000000000000D+00  0.0000000000000D+00
   194  1.9300000000000D+00  0.0000000000000D+00  0.0000000000000D+00
   195  1.9400000000000D+00  0.0000000000000D+00  0.0000000000000D+00
   196  1.9500000000000D+00  0.0000000000000D+00  0.0000000000000D+00
   197  1.9600000000000D+00  0.0000000000000D+00  0.0000000000000D+00
   198  1.9700000000000D+00  0.0000000000000D+00  0.0000000000000D+00
   199  1.9800000000000D+00  0.0000000000000D+00  0.0000000000000D+00
   200  1.9900000000000D+00  0.0000000000000D+00  0.0000000000000D+00
   201  2.0000000000000D+00  0.0000000000000D+00  0.0000000000000D+00
   202  2.0100000000000D+00  0.0000000000000D+00  0.0000000000000D+00
   203  2.0200000000000D+00  0.0000000000000D+00  0.0000000000000D+00
   204  2.0300000000000D+00  0.0000000000000D+00  0.0000000000000D+00
   205  2.0400000000000D+00  0.0000000000000D+00  0.0000000000000D+00
   206  2.0500000000000D+00  0.0000000000000D+00  0.0000000000000D+00
   207  2.0600000000000D+00  0.0000000000000D+00  0.0000000000000D+00
   208  2.0700000000000D+00  0.0000000000000D+00  0.0000000000000D+00
   209  2.0800000000000D+00  0.0000000000000D+00  0.0000000000000D+00
   210  2.0900000000000D+00  0.0000000000000D+00  0.0000000000000D+00
   211  2.1000000000000D+00  0.0000000000000D+00  0.0000000000000D+00
   212  2.1100000000000D+00  0.0000000000000D+00  0.0000000000000D+00
   213  2.1200000000000D+00  0.0000000000000D+00  0.0000000000000D+00
   214  2.1300000000000D+00  0.0000000000000D+00  0.0000000000000D+00
   215  2.1400000000000D+00  0.0000000000000D+00  0.0000000000000D+00
   216  2.1500000000000D+00  0.0000000000000D+00  0.0000000000000D+00
   217  2.1600000000000D+00  0.0000000000000D+00  0.0000000000000D+00
   218  2.1700000000000D+00  0.0000000000000D+00  0.0000000000000D+00
   219  2.1800000000000D+00  0.0000000000000D+00  0.0000000000000D+00
   220  2.1900000000000D+00  0.0000000000000D+00  0.0000000000000D+00
   221  2.2000000000000D+00  0.0000000000000D+00  0.0000000000000D+00
   222  2.2100000000000D+00  0.0000000000000D+00  0.0000000000000D+00
   223  2.2200000000000D+00  0.0000000000000D+00  0.0000000000000D+00
   224  2.2300000000000D+00  0.0000000000000D+00  0.0000000000000D+00
   225  2.2400000000000D+00  0.0000000000000D+00  0.0000000000000D+00
   226  2.2500000000000D+00  0.0000000000000D+00  0.0000000000000D+00
   227  2.2600000000000D+00  0.0000000000000D+00  0.0000000000000D+00
   228  2.2700000000000D+00  0.0000000000000D+00  0.0000000000000D+00
   229  2.2800000000000D+00  0.0000000000000D+00  0.0000000000000D+00
   230  2.2900000000000D+00  0.0000000000000D+00  0.0000000000000D+00
   231  2.3000000000000D+00  0.0000000000000D+00  0.0000000000000D+00
   232  2.3100000000000D+00  0.0000000000000D+00  0.0000000000000D+00
   233  2.3200000000000D+00  0.0000000000000D+00  0.0000000000000D+00
   234  2.3300000000000D+00  0.0000000000000D+00  0.0000000000000D+00
   235  2.3400000000000D+00  0.0000000000000D+00  0.0000000000000D+00
   236  2.3500000000000D+00  0.0000000000000D+00  0.0000000000000D+00
   237  2.3600000000000D+00  0.0000000000000D+00  0.0000000000000D+00
   238  2.3700000000000D+00  0.0000000000000D+00  0.0000000000000D+00
   239  2.3800000000000D+00  0.0000000000000D+00  0.0000000000000D+00
   240  2.3900000000000D+00  0.0000000000000D+00  0.0000000000000D+00
   241  2.4000000000000D+00  0.0000000000000D+00  0.0000000000000D+00
   242  2.4100000000000D+00  0.0000000000000D+00  0.0000000000000D+00
   243  2.4200000000000D+00  0.0000000000000D+00  0.0000000000000D+00
   244  2.4300000000000D+00  0.0000000000000D+00  0.0000000000000D+00
   245  2.4400000000000D+00  0.0000000000000D+00  0.0000000000000D+00
   246  2.4500000000000D+00  0.0000000000000D+00  0.0000000000000D+00
   247  2.4600000000000D+00  0.0000000000000D+00  0.0000000000000D+00
   248  2.4700000000000D+00  0.0000000000000D+00  0.0000000000000D+00
   249  2.4800000000000D+00  0.0000000000000D+00  0.0000000000000D+00
   250  2.4900000000000D+00  0.0000000000000D+00  0.0000000000000D+00
   251  2.5000000000000D+00  0.0000000000000D+00  0.0000000000000D+00
   252  2.5100000000000D+00  0.0000000000000D+00  0.0000000000000D+00
   253  2.5200000000000D+00  0.0000000000000D+00  0.0000000000000D+00
   254  2.5300000000000D+00  0.0000000000000D+00  0.0000000000000D+00
   255  2.5400000000000D+00  0.0000000000000D+00  0.0000000000000D+00
   256  2.5500000000000D+00  0.0000000000000D+00  0.0000000000000D+00
   257  2.5600000000000D+00  0.0000000000000D+00  0.0000000000000D+00
   258  2.5700000000000D+00  0.0000000000000D+00  0.0000000000000D+00
   259  2.5800000000000D+00  0.0000000000000D+00  0.0000000000000D+00
   260  2.5900000000000D+00  0.0000000000000D+00  0.0000000000000D+00
   261  2.6000000000000D+00  0.0000000000000D+00  0.0000000000000D+00
   262  2.6100000000000D+00  0.0000000000000D+00  0.0000000000000D+00
   263  2.6200000000000D+00  0.0000000000000D+00  0.0000000000000D+00
   264  2.6300000000000D+00  0.0000000000000D+00  0.0000000000000D+00
   265  2.6400000000000D+00  0.0000000000000D+00  0.0000000000000D+00
   266  2.6500000000000D+00  0.0000000000000D+00  0.0000000000000D+00
   267  2.6600000000000D+00  0.0000000000000D+00  0.0000000000000D+00
   268  2.6700000000000D+00  0.0000000000000D+00  0.0000000000000D+00
   269  2.6800000000000D+00  0.0000000000000D+00  0.0000000000000D+00
   270  2.6900000000000D+00  0.0000000000000D+00  0.0000000000000D+00
   271  2.7000000000000D+00  0.0000000000000D+00  0.0000000000000D+00
   272  2.7100000000000D+00  0.0000000000000D+00  0.0000000000000D+00
   273  2.7200000000000D+00  0.0000000000000D+00  0.0000000000000D+00
   274  2.7300000000000D+00  0.0000000000000D+00  0.0000000000000D+00
   275  2.7400000000000D+00  0.0000000000000D+00  0.0000000000000D+00
   276  2.7500000000000D+00  0.0000000000000D+00  0.0000000000000D+00
   277  2.7600000000000D+00  0.0000000000000D+00  0.0000000000000D+00
   278  2.7700000000000D+00  0.0000000000000D+00  0.0000000000000D+00
   279  2.7800000000000D+00  0.0000000000000D+00  0.0000000000000D+00
   280  2.7900000000000D+00  0.0000000000000D+00  0.0000000000000D+00
   281  2.8000000000000D+00  0.0000000000000D+00  0.0000000000000D+00
   282  2.8100000000000D+00  0.0000000000000D+00  0.0000000000000D+00
   283  2.8200000000000D+00  0.0000000000000D+00  0.0000000000000D+00
   284  2.8300000000000D+00  0.0000000000000D+00  0.0000000000000D+00
   285  2.8400000000000D+00  0.0000000000000D+00  0.0000000000000D+00
   286  2.8500000000000D+00  0.0000000000000D+00  0.0000000000000D+00
   287  2.8600000000000D+00  0.0000000000000D+00  0.0000000000000D+00
   288  2.8700000000000D+00  0.0000000000000D+00  0.0000000000000D+00
   289  2.8800000000000D+00  0.0000000000000D+00  0.0000000000000D+00
   290  2.8900000000000D+00  0.0000000000000D+00  0.0000000000000D+00
   291  2.9000000000000D+00  0.0000000000000D+00  0.0000000000000D+00
   292  2.9100000000000D+00  0.0000000000000D+00  0.0000000000000D+00
   293  2.9200000000000D+00  0.0000000000000D+00  0.0000000000000D+00
   294  2.9300000000000D+00  0.0000000000000D+00  0.0000000000000D+00
   295  2.9400000000000D+00  0.0000000000000D+00  0.0000000000000D+00
   296  2.9500000000000D+00  0.0000000000000D+00  0.0000000000000D+00
   297  2.9600000000000D+00  0.0000000000000D+00  0.0000000000000D+00
   298  2.9700000000000D+00  0.0000000000000D+00  0.0000000000000D+00
   299  2.9800000000000D+00  0.0000000000000D+00  0.0000000000000D+00
   300  2.9900000000000D+00  0.0000000000000D+00  0.0000000000000D+00
   301  3.0000000000000D+00  0.0000000000000D+00  0.0000000000000D+00
   302  3.0100000000000D+00  0.0000000000000D+00  0.0000000000000D+00
   303  3.0200000000000D+00  0.0000000000000D+00  0.0000000000000D+00
   304  3.0300000000000D+00  0.0000000000000D+00  0.0000000000000D+00
   305  3.0400000000000D+00  0.0000000000000D+00  0.0000000000000D+00
   306  3.0500000000000D+00  0.0000000000000D+00  0.0000000000000D+00
   307  3.0600000000000D+00  0.0000000000000D+00  0.0000000000000D+00
   308  3.0700000000000D+00  0.0000000000000D+00  0.0000000000000D+00
   309  3.0800000000000D+00  0.0000000000000D+00  0.0000000000000D+00
   310  3.0900000000000D+00  0.0000000000000D+00  0.0000000000000D+00
   311  3.1000000000000D+00  0.0000000000000D+00  0.0000000000000D+00
   312  3.1100000000000D+00  0.0000000000000D+00  0.0000000000000D+00
   313  3.1200000000000D+00  0.0000000000000D+00  0.0000000000000D+00
   314  3.1300000000000D+00  0.0000000000000D+00  0.0000000000000D+00
   315  3.1400000000000D+00  0.0000000000000D+00  0.0000000000000D+00
   316  3.1500000000000D+00  0.0000000000000D+00  0.0000000000000D+00
   317  3.1600000000000D+00  0.0000000000000D+00  0.0000000000000D+00
   318  3.1700000000000D+00  0.0000000000000D+00  0.0000000000000D+00
   319  3.1800000000000D+00  0.0000000000000D+00  0.0000000000000D+00
   320  3.1900000000000D+00  0.0000000000000D+00  0.0000000000000D+00
   321  3.2000000000000D+00  0.0000000000000D+00  0.0000000000000D+00
   322  3.2100000000000D+00  0.0000000000000D+00  0.0000000000000D+00
   323  3.2200000000000D+00  0.0000000000000D+00  0.0000000000000D+00
   324  3.2300000000000D+00  0.0000000000000D+00  0.0000000000000D+00
   325  3.2400000000000D+00  0.0000000000000D+00  0.0000000000000D+00
   326  3.2500000000000D+00  0.0000000000000D+00  0.0000000000000D+00
   327  3.2600000000000D+00  0.0000000000000D+00  0.0000000000000D+00
   328  3.2700000000000D+00  0.0000000000000D+00  0.0000000000000D+00
   329  3.2800000000000D+00  0.0000000000000D+00  0.0000000000000D+00
   330  3.2900000000000D+00  0.0000000000000D+00  0.0000000000000D+00
   331  3.3000000000000D+00  0.0000000000000D+00  0.0000000000000D+00
   332  3.3100000000000D+00  0.0000000000000D+00  0.0000000000000D+00
   333  3.3200000000000D+00  0.0000000000000D+00  0.0000000000000D+00
   334  3.3300000000000D+00  0.0000000000000D+00  0.0000000000000D+00
   335  3.3400000000000D+00  0.0000000000000D+00  0.0000000000000D+00
   336  3.3500000000000D+00  0.0000000000000D+00  0.0000000000000D+00
   337  3.3600000000000D+00  0.0000000000000D+00  0.0000000000000D+00
   338  3.3700000000000D+00  0.0000000000000D+00  0.0000000000000D+00
   339  3.3800000000000D+00  0.0000000000000D+00  0.0000000000000D+00
   340  3.3900000000000D+00  0.0000000000000D+00  0.0000000000000D+00
   341  3.4000000000000D+00  0.0000000000000D+00  0.0000000000000D+00
   342  3.4100000000000D+00  0.0000000000000D+00  0.0000000000000D+00
   343  3.4200000000000D+00  0.0000000000000D+00  0.0000000000000D+00
   344  3.4300000000000D+00  0.0000000000000D+00  0.0000000000000D+00
   345  3.4400000000000D+00  0.0000000000000D+00  0.0000000000000D+00
   346  3.4500000000000D+00  0.0000000000000D+00  0.0000000000000D+00
   347  3.4600000000000D+00  0.0000000000000D+00  0.0000000000000D+00
   348  3.4700000000000D+00  0.0000000000000D+00  0.0000000000000D+00
   349  3.4800000000000D+00  0.0000000000000D+00  0.0000000000000D+00
   350  3.4900000000000D+00  0.0000000000000D+00  0.0000000000000D+00
   351  3.5000000000000D+00  0.0000000000000D+00  0.0000000000000D+00
   352  3.5100000000000D+00  0.0000000000000D+00  0.0000000000000D+00
   353  3.5200000000000D+00  0.0000000000000D+00  0.0000000000000D+00
   354  3.5300000000000D+00  0.0000000000000D+00  0.0000000000000D+00
   355  3.5400000000000D+00  0.0000000000000D+00  0.0000000000000D+00
   356  3.5500000000000D+00  0.0000000000000D+00  0.0000000000000D+00
   357  3.5600000000000D+00  0.0000000000000D+00  0.0000000000000D+00
   358  3.5700000000000D+00  0.0000000000000D+00  0.0000000000000D+00
   359  3.5800000000000D+00  0.0000000000000D+00  0.0000000000000D+00
   360  3.5900000000000D+00  0.0000000000000D+00  0.0000000000000D+00
   361  3.6000000000000D+00  0.0000000000000D+00  0.0000000000000D+00
   362  3.6100000000000D+00  0.0000000000000D+00  0.0000000000000D+00
   363  3.6200000000000D+00  0.0000000000000D+00  0.0000000000000D+00
   364  3.6300000000000D+00  0.0000000000000D+00  0.0000000000000D+00
   365  3.6400000000000D+00  0.0000000000000D+00  0.0000000000000D+00
   366  3.6500000000000D+00  0.0000000000000D+00  0.0000000000000D+00
   367  3.6600000000000D+00  0.0000000000000D+00  0.0000000000000D+00
   368  3.6700000000000D+00  0.0000000000000D+00  0.0000000000000D+00
   369  3.6800000000000D+00  0.0000000000000D+00  0.0000000000000D+00
   370  3.6900000000000D+00  0.0000000000000D+00  0.0000000000000D+00
   371  3.7000000000000D+00  0.0000000000000D+00  0.0000000000000D+00
   372  3.7100000000000D+00  0.0000000000000D+00  0.0000000000000D+00
   373  3.7200000000000D+00  0.0000000000000D+00  0.0000000000000D+00
   374  3.7300000000000D+00  0.0000000000000D+00  0.0000000000000D+00
   375  3.7400000000000D+00  0.0000000000000D+00  0.0000000000000D+00
   376  3.7500000000000D+00  0.0000000000000D+00  0.0000000000000D+00
   377  3.7600000000000D+00  0.0000000000000D+00  0.0000000000000D+00
   378  3.7700000000000D+00  0.0000000000000D+00  0.0000000000000D+00
   379  3.7800000000000D+00  0.0000000000000D+00  0.0000000000000D+00
   380  3.7900000000000D+00  0.0000000000000D+00  0.0000000000000D+00
   381  3.8000000000000D+00  0.0000000000000D+00  0.0000000000000D+00
   382  3.8100000000000D+00  0.0000000000000D+00  0.0000000000000D+00
   383  3.8200000000000D+00  0.0000000000000D+00  0.0000000000000D+00
   384  3.8300000000000D+00  0.0000000000000D+00  0.0000000000000D+00
   385  3.8400000000000D+00  0.0000000000000D+00  0.0000000000000D+00
   386  3.8500000000000D+00  0.0000000000000D+00  0.0000000000000D+00
   387  3.8600000000000D+00  0.0000000000000D+00  0.0000000000000D+00
   388  3.8700000000000D+00  0.0000000000000D+00  0.0000000000000D+00
   389  3.8800000000000D+00  0.0000000000000D+00  0.0000000000000D+00
   390  3.8900000000000D+00  0.0000000000000D+00  0.0000000000000D+00
   391  3.9000000000000D+00  0.0000000000000D+00  0.0000000000000D+00
   392  3.9100000000000D+00  0.0000000000000D+00  0.0000000000000D+00
   393  3.9200000000000D+00  0.0000000000000D+00  0.0000000000000D+00
   394  3.9300000000000D+00  0.0000000000000D+00  0.0000000000000D+00
   395  3.9400000000000D+00  0.0000000000000D+00  0.0000000000000D+00
   396  3.9500000000000D+00  0.0000000000000D+00  0.0000000000000D+00
   397  3.9600000000000D+00  0.0000000000000D+00  0.0000000000000D+00
   398  3.9700000000000D+00  0.0000000000000D+00  0.0000000000000D+00
   399  3.9800000000000D+00  0.0000000000000D+00  0.0000000000000D+00
   400  3.9900000000000D+00  0.0000000000000D+00  0.0000000000000D+00
   401  4.0000000000000D+00  0.0000000000000D+00  0.0000000000000D+00
   402  4.0100000000000D+00  0.0000000000000D+00  0.0000000000000D+00
   403  4.0200000000000D+00  0.0000000000000D+00  0.0000000000000D+00
   404  4.0300000000000D+00  0.0000000000000D+00  0.0000000000000D+00
   405  4.0400000000000D+00  0.0000000000000D+00  0.0000000000000D+00
   406  4.0500000000000D+00  0.0000000000000D+00  0.0000000000000D+00
   407  4.0600000000000D+00  0.0000000000000D+00  0.0000000000000D+00
   408  4.0700000000000D+00  0.0000000000000D+00  0.0000000000000D+00
   409  4.0800000000000D+00  0.0000000000000D+00  0.0000000000000D+00
   410  4.0900000000000D+00  0.0000000000000D+00  0.0000000000000D+00
   411  4.1000000000000D+00  0.0000000000000D+00  0.0000000000000D+00
   412  4.1100000000000D+00  0.0000000000000D+00  0.0000000000000D+00
   413  4.1200000000000D+00  0.0000000000000D+00  0.0000000000000D+00
   414  4.1300000000000D+00  0.0000000000000D+00  0.0000000000000D+00
   415  4.1400000000000D+00  0.0000000000000D+00  0.0000000000000D+00
   416  4.1500000000000D+00  0.0000000000000D+00  0.0000000000000D+00
   417  4.1600000000000D+00  0.0000000000000D+00  0.0000000000000D+00
   418  4.1700000000000D+00  0.0000000000000D+00  0.0000000000000D+00
   419  4.1800000000000D+00  0.0000000000000D+00  0.0000000000000D+00
   420  4.1900000000000D+00  0.0000000000000D+00  0.0000000000000D+00
   421  4.2000000000000D+00  0.0000000000000D+00  0.0000000000000D+00
   422  4.2100000000000D+00  0.0000000000000D+00  0.0000000000000D+00