Xe    ONCVPSP-3.3.1  r_core=   3.01052   3.01052   2.70406
     54.0000     18.0000      210904    zatom,zion,pspd
     8      11   2     4   600     0    pspcod,pspxc,lmax,lloc,mmax,r2well
  5.99000000  0.00000000  0.00000000    rchrg fchrg qchrg
     2     4     2     0    nproj
     3     1           extension_switch
     4     3     0    nprojso
   0                         4.7872808761553D-01  4.4837398730718D+00
     1  0.0000000000000D+00 -6.3177241216295D-13  3.0120350658080D-13
     2  1.0000000000000D-02 -1.6080075667158D-02  3.1953806069942D-02
     3  2.0000000000000D-02 -3.2134701182976D-02  6.3886146380206D-02
     4  3.0000000000000D-02 -4.8138449470499D-02  9.5775568757129D-02
     5  4.0000000000000D-02 -6.4065939612014D-02  1.2760064820604D-01
     6  5.0000000000000D-02 -7.9891859954682D-02  1.5934000051813D-01
     7  6.0000000000000D-02 -9.5590991246930D-02  1.9097229589784D-01
     8  7.0000000000000D-02 -1.1113822981510D-01  2.2247627261748D-01
     9  8.0000000000000D-02 -1.2650861078921D-01  2.5383075070504D-01
    10  9.0000000000000D-02 -1.4167733138584D-01  2.8501464567110D-01
    11  1.0000000000000D-01 -1.5661977425532D-01  3.1600698228031D-01
    12  1.1000000000000D-01 -1.7131153089913D-01  3.4678690837202D-01
    13  1.2000000000000D-01 -1.8572842516231D-01  3.7733370873452D-01
    14  1.3000000000000D-01 -1.9984653680431D-01  4.0762681903624D-01
    15  1.4000000000000D-01 -2.1364222514997D-01  4.3764583981699D-01
    16  1.5000000000000D-01 -2.2709215282112D-01  4.6737055054099D-01
    17  1.6000000000000D-01 -2.4017330954705D-01  4.9678092371315D-01
    18  1.7000000000000D-01 -2.5286303605062D-01  5.2585713905876D-01
    19  1.8000000000000D-01 -2.6513904800462D-01  5.5457959776592D-01
    20  1.9000000000000D-01 -2.7697946005106D-01  5.8292893678913D-01
    21  2.0000000000000D-01 -2.8836280987383D-01  6.1088604321130D-01
    22  2.1000000000000D-01 -2.9926808231309D-01  6.3843206866046D-01
    23  2.2000000000000D-01 -3.0967473350746D-01  6.6554844377623D-01
    24  2.3000000000000D-01 -3.1956271504770D-01  6.9221689272010D-01
    25  2.4000000000000D-01 -3.2891249812335D-01  7.1841944772231D-01
    26  2.5000000000000D-01 -3.3770509764140D-01  7.4413846365698D-01
    27  2.6000000000000D-01 -3.4592209629357D-01  7.6935663263603D-01
    28  2.7000000000000D-01 -3.5354566854662D-01  7.9405699861099D-01
    29  2.8000000000000D-01 -3.6055860452751D-01  8.1822297197098D-01
    30  2.9000000000000D-01 -3.6694433377302D-01  8.4183834412350D-01
    31  3.0000000000000D-01 -3.7268694881110D-01  8.6488730204393D-01
    32  3.1000000000000D-01 -3.7777122853889D-01  8.8735444277807D-01
    33  3.2000000000000D-01 -3.8218266136025D-01  9.0922478788113D-01
    34  3.3000000000000D-01 -3.8590746804334D-01  9.3048379777544D-01
    35  3.4000000000000D-01 -3.8893262425692D-01  9.5111738600793D-01
    36  3.5000000000000D-01 -3.9124588274188D-01  9.7111193338747D-01
    37  3.6000000000000D-01 -3.9283579507286D-01  9.9045430198108D-01
    38  3.7000000000000D-01 -3.9369173296276D-01  1.0091318489471D+00
    39  3.8000000000000D-01 -3.9380390906173D-01  1.0271324401823D+00
    40  3.9000000000000D-01 -3.9316339720035D-01  1.0444444637594D+00
    41  4.0000000000000D-01 -3.9176215202565D-01  1.0610568431306D+00
    42  4.1000000000000D-01 -3.8959302797732D-01  1.0769590500705D+00
    43  4.2000000000000D-01 -3.8664979755029D-01  1.0921411173351D+00
    44  4.3000000000000D-01 -3.8292716878954D-01  1.1065936510068D+00
    45  4.4000000000000D-01 -3.7842080196151D-01  1.1203078425015D+00
    46  4.5000000000000D-01 -3.7312732534686D-01  1.1332754802081D+00
    47  4.6000000000000D-01 -3.6704435009838D-01  1.1454889607329D+00
    48  4.7000000000000D-01 -3.6017048410823D-01  1.1569412997217D+00
    49  4.8000000000000D-01 -3.5250534482837D-01  1.1676261422295D+00
    50  4.9000000000000D-01 -3.4404957098898D-01  1.1775377726102D+00
    51  5.0000000000000D-01 -3.3480483315940D-01  1.1866711238982D+00
    52  5.1000000000000D-01 -3.2477384309774D-01  1.1950217866521D+00
    53  5.2000000000000D-01 -3.1396036183565D-01  1.2025860172333D+00
    54  5.3000000000000D-01 -3.0236920644615D-01  1.2093607454909D+00
    55  5.4000000000000D-01 -2.9000625544399D-01  1.2153435818256D+00
    56  5.5000000000000D-01 -2.7687845276944D-01  1.2205328236055D+00
    57  5.6000000000000D-01 -2.6299381030824D-01  1.2249274609064D+00
    58  5.7000000000000D-01 -2.4836140890274D-01  1.2285271815516D+00
    59  5.8000000000000D-01 -2.3299139781136D-01  1.2313323754258D+00
    60  5.9000000000000D-01 -2.1689499257598D-01  1.2333441380385D+00
    61  6.0000000000000D-01 -2.0008447125966D-01  1.2345642733139D+00
    62  6.1000000000000D-01 -1.8257316902003D-01  1.2349952955846D+00
    63  6.2000000000000D-01 -1.6437547098653D-01  1.2346404307690D+00
    64  6.3000000000000D-01 -1.4550680341329D-01  1.2335036167108D+00
    65  6.4000000000000D-01 -1.2598362308268D-01  1.2315895026637D+00
    66  6.5000000000000D-01 -1.0582340493814D-01  1.2289034479036D+00
    67  6.6000000000000D-01 -8.5044627928964D-02  1.2254515194521D+00
    68  6.7000000000000D-01 -6.3666759053379D-02  1.2212404888982D+00
    69  6.8000000000000D-01 -4.1710235590336D-02  1.2162778283044D+00
    70  6.9000000000000D-01 -1.9196445514926D-02  1.2105717051887D+00
    71  7.0000000000000D-01  3.8522939036893D-03  1.2041309765706D+00
    72  7.1000000000000D-01  2.7412759318323D-02  1.1969651820770D+00
    73  7.2000000000000D-01  5.1460846325716D-02  1.1890845361004D+00
    74  7.3000000000000D-01  7.5971596281968D-02  1.1804999190079D+00
    75  7.4000000000000D-01  1.0091922489398D-01  1.1712228673984D+00
    76  7.5000000000000D-01  1.2627715256512D-01  1.1612655634096D+00
    77  7.6000000000000D-01  1.5201803646831D-01  1.1506408230779D+00
    78  7.7000000000000D-01  1.7811380431494D-01  1.1393620837544D+00
    79  7.8000000000000D-01  2.0453568978360D-01  1.1274433905867D+00
    80  7.9000000000000D-01  2.3125426956721D-01  1.1148993820737D+00
    81  8.0000000000000D-01  2.5823950199314D-01  1.1017452747047D+00
    82  8.1000000000000D-01  2.8546076716551D-01  1.0879968466983D+00
    83  8.2000000000000D-01  3.1288690857479D-01  1.0736704208538D+00
    84  8.3000000000000D-01  3.4048627611473D-01  1.0587828465357D+00
    85  8.4000000000000D-01  3.6822677044266D-01  1.0433514808091D+00
    86  8.5000000000000D-01  3.9607588861444D-01  1.0273941687488D+00
    87  8.6000000000000D-01  4.2400077092112D-01  1.0109292229465D+00
    88  8.7000000000000D-01  4.5196824885064D-01  9.9397540224135D-01
    89  8.8000000000000D-01  4.7994489409316D-01  9.7655188970281D-01
    90  8.9000000000000D-01  5.0789706850564D-01  9.5867826989501D-01
    91  9.0000000000000D-01  5.3579097494697D-01  9.4037450545516D-01
    92  9.1000000000000D-01  5.6359270889186D-01  9.2166091301952D-01
    93  9.2000000000000D-01  5.9126831072834D-01  9.0255813853248D-01
    94  9.3000000000000D-01  6.1878381864070D-01  8.8308713197604D-01
    95  9.4000000000000D-01  6.4610532197681D-01  8.6326912155842D-01
    96  9.5000000000000D-01  6.7319901499651D-01  8.4312558740244D-01
    97  9.6000000000000D-01  7.0003125089485D-01  8.2267823477523D-01
    98  9.7000000000000D-01  7.2656859599259D-01  8.0194896690282D-01
    99  9.8000000000000D-01  7.5277788398409D-01  7.8095985741379D-01
   100  9.9000000000000D-01  7.7862627013143D-01  7.5973312245799D-01
   101  1.0000000000000D+00  8.0408128529236D-01  7.3829109254671D-01
   102  1.0100000000000D+00  8.2911088966863D-01  7.1665618416237D-01
   103  1.0200000000000D+00  8.5368352616095D-01  6.9485087118598D-01
   104  1.0300000000000D+00  8.7776817321592D-01  6.7289765619185D-01
   105  1.0400000000000D+00  9.0133439705097D-01  6.5081904165938D-01
   106  1.0500000000000D+00  9.2435240314307D-01  6.2863750115240D-01
   107  1.0600000000000D+00  9.4679308686789D-01  6.0637545051677D-01
   108  1.0700000000000D+00  9.6862808317686D-01  5.8405521914740D-01
   109  1.0800000000000D+00  9.8982981520090D-01  5.6169902137580D-01
   110  1.0900000000000D+00  1.0103715416711D+00  5.3932892802942D-01
   111  1.1000000000000D+00  1.0302274030486D+00  5.1696683821376D-01
   112  1.1100000000000D+00  1.0493724662581D+00  4.9463445136832D-01
   113  1.1200000000000D+00  1.0677827679209D+00  4.7235323964654D-01
   114  1.1300000000000D+00  1.0854353559890D+00  4.5014442067011D-01
   115  1.1400000000000D+00  1.1023083296806D+00  4.2802893070663D-01
   116  1.1500000000000D+00  1.1183808776249D+00  4.0602739831963D-01
   117  1.1600000000000D+00  1.1336333141246D+00  3.8416011853846D-01
   118  1.1700000000000D+00  1.1480471134503D+00  3.6244702759512D-01
   119  1.1800000000000D+00  1.1616049420849D+00  3.4090767827334D-01
   120  1.1900000000000D+00  1.1742906888389D+00  3.1956121591503D-01
   121  1.2000000000000D+00  1.1860894927645D+00  2.9842635512677D-01
   122  1.2100000000000D+00  1.1969877687999D+00  2.7752135722844D-01
   123  1.2200000000000D+00  1.2069732310810D+00  2.5686400848396D-01
   124  1.2300000000000D+00  1.2160349138613D+00  2.3647159915327D-01
   125  1.2400000000000D+00  1.2241631899886D+00  2.1636090340201D-01
   126  1.2500000000000D+00  1.2313497868937D+00  1.9654816010393D-01
   127  1.2600000000000D+00  1.2375878000445D+00  1.7704905457000D-01
   128  1.2700000000000D+00  1.2428717038368D+00  1.5787870123477D-01
   129  1.2800000000000D+00  1.2471973598899D+00  1.3905162732887D-01
   130  1.2900000000000D+00  1.2505620227235D+00  1.2058175756615D-01
   131  1.3000000000000D+00  1.2529643428002D+00  1.0248239986904D-01
   132  1.3100000000000D+00  1.2544043669263D+00  8.4766232154644D-02
   133  1.3200000000000D+00  1.2548835360007D+00  6.7445290203814D-02
   134  1.3300000000000D+00  1.2544046801202D+00  5.0530956629020D-02
   135  1.3400000000000D+00  1.2529720110497D+00  3.4033950957608D-02
   136  1.3500000000000D+00  1.2505911120672D+00  1.7964320844899D-02
   137  1.3600000000000D+00  1.2472689252134D+00  2.3314344254596D-03
   138  1.3700000000000D+00  1.2430137359686D+00 -1.2856026186733D-02
   139  1.3800000000000D+00  1.2378351553900D+00 -2.7590070243640D-02
   140  1.3900000000000D+00  1.2317440997595D+00 -4.1863402553076D-02
   141  1.4000000000000D+00  1.2247527677731D+00 -5.5669426507249D-02
   142  1.4100000000000D+00  1.2168746153401D+00 -6.9002245956371D-02
   143  1.4200000000000D+00  1.2081243280406D+00 -8.1856665928388D-02
   144  1.4300000000000D+00  1.1985177913068D+00 -9.4228192200276D-02
   145  1.4400000000000D+00  1.1880720584045D+00 -1.0611302973402D-01
   146  1.4500000000000D+00  1.1768053162765D+00 -1.1750807998127D-01
   147  1.4600000000000D+00  1.1647368493428D+00 -1.2841093707707D-01
   148  1.4700000000000D+00  1.1518870013305D+00 -1.3881988293333D-01
   149  1.4800000000000D+00  1.1382771352278D+00 -1.4873388125122D-01
   150  1.4900000000000D+00  1.1239295914589D+00 -1.5815257047457D-01
   151  1.5000000000000D+00  1.1088676443670D+00 -1.6707625570079D-01
   152  1.5100000000000D+00  1.0931154571224D+00 -1.7550589958126D-01
   153  1.5200000000000D+00  1.0766980351446D+00 -1.8344311222797D-01
   154  1.5300000000000D+00  1.0596411781605D+00 -1.9089014016280D-01
   155  1.5400000000000D+00  1.0419714309999D+00 -1.9784985433234D-01
   156  1.5500000000000D+00  1.0237160332485D+00 -2.0432573722352D-01
   157  1.5600000000000D+00  1.0049028678716D+00 -2.1032186911153D-01
   158  1.5700000000000D+00  9.8556040892648D-01 -2.1584291347308D-01
   159  1.5800000000000D+00  9.6571766848455D-01 -2.2089410160423D-01
   160  1.5900000000000D+00  9.4540414288221D-01 -2.2548121647443D-01
   161  1.6000000000000D+00  9.2464975842355D-01 -2.2961057586163D-01
   162  1.6100000000000D+00  9.0348481665672D-01 -2.3328901480003D-01
   163  1.6200000000000D+00  8.8193993934454D-01 -2.3652386738885D-01
   164  1.6300000000000D+00  8.6004601325610D-01 -2.3932294799497D-01
   165  1.6400000000000D+00  8.3783413489320D-01 -2.4169453189881D-01
   166  1.6500000000000D+00  8.1533555528329D-01 -2.4364733541928D-01
   167  1.6600000000000D+00  7.9258162494417D-01 -2.4519049556600D-01
   168  1.6700000000000D+00  7.6960373915565D-01 -2.4633354925801D-01
   169  1.6800000000000D+00  7.4643328363357D-01 -2.4708641215533D-01
   170  1.6900000000000D+00  7.2310158074375D-01 -2.4745935714543D-01
   171  1.7000000000000D+00  6.9963983633913D-01 -2.4746299252880D-01
   172  1.7100000000000D+00  6.7607908736057D-01 -2.4710823994811D-01
   173  1.7200000000000D+00  6.5245015026854D-01 -2.4640631210209D-01
   174  1.7300000000000D+00  6.2878357045136D-01 -2.4536869029136D-01
   175  1.7400000000000D+00  6.0510957265528D-01 -2.4400710183298D-01
   176  1.7500000000000D+00  5.8145801259237D-01 -2.4233349739423D-01
   177  1.7600000000000D+00  5.5785832974072D-01 -2.4036002827622D-01
   178  1.7700000000000D+00  5.3433950151096D-01 -2.3809902370273D-01
   179  1.7800000000000D+00  5.1092999875358D-01 -2.3556296813595D-01
   180  1.7900000000000D+00  4.8765774280152D-01 -2.3276447868057D-01
   181  1.8000000000000D+00  4.6455006399026D-01 -2.2971628258948D-01
   182  1.8100000000000D+00  4.4163366184683D-01 -2.2643119493437D-01
   183  1.8200000000000D+00  4.1893456688640D-01 -2.2292209645131D-01
   184  1.8300000000000D+00  3.9647810417704D-01 -2.1920191162028D-01
   185  1.8400000000000D+00  3.7428885863072D-01 -2.1528358699111D-01
   186  1.8500000000000D+00  3.5239064212660D-01 -2.1118006980388D-01
   187  1.8600000000000D+00  3.3080646246833D-01 -2.0690428692549D-01
   188  1.8700000000000D+00  3.0955849420093D-01 -2.0246912413128D-01
   189  1.8800000000000D+00  2.8866805135807D-01 -1.9788740577096D-01
   190  1.8900000000000D+00  2.6815556206065D-01 -1.9317187482014D-01
   191  1.9000000000000D+00  2.4804054512346D-01 -1.8833517338057D-01
   192  1.9100000000000D+00  2.2834158848739D-01 -1.8338982360072D-01
   193  1.9200000000000D+00  2.0907632968471D-01 -1.7834820909616D-01
   194  1.9300000000000D+00  1.9026143813380D-01 -1.7322255683288D-01
   195  1.9400000000000D+00  1.7191259940205D-01 -1.6802491953576D-01
   196  1.9500000000000D+00  1.5404450133267D-01 -1.6276715861230D-01
   197  1.9600000000000D+00  1.3667082201990D-01 -1.5746092760899D-01
   198  1.9700000000000D+00  1.1980421967567D-01 -1.5211765623552D-01
   199  1.9800000000000D+00  1.0345632420052D-01 -1.4674853491877D-01
   200  1.9900000000000D+00  8.7637730625755D-02 -1.4136449996443D-01
   201  2.0000000000000D+00  7.2357994165990D-02 -1.3597621926054D-01
   202  2.0100000000000D+00  5.7625627003091D-02 -1.3059407858874D-01
   203  2.0200000000000D+00  4.3448096653751D-02 -1.2522816851376D-01
   204  2.0300000000000D+00  2.9831825863214D-02 -1.1988827185443D-01
   205  2.0400000000000D+00  1.6782194046427D-02 -1.1458385177042D-01
   206  2.0500000000000D+00  4.3035400621774D-03 -1.0932404040384D-01
   207  2.0600000000000D+00 -7.6008335808025D-03 -1.0411762814655D-01
   208  2.0700000000000D+00 -1.8928655298910D-02 -9.8973053467186D-02
   209  2.0800000000000D+00 -2.9678677797058D-02 -9.3898393326258D-02
   210  2.0900000000000D+00 -3.9850670288853D-02 -8.8901354179752D-02
   211  2.1000000000000D+00 -4.9445409728361D-02 -8.3989263520754D-02
   212  2.1100000000000D+00 -5.8464671035116D-02 -7.9169062017370D-02
   213  2.1200000000000D+00 -6.6911216483985D-02 -7.4447296173743D-02
   214  2.1300000000000D+00 -7.4788784302061D-02 -6.9830111541552D-02
   215  2.1400000000000D+00 -8.2102076565003D-02 -6.5323246469577D-02
   216  2.1500000000000D+00 -8.8856746485155D-02 -6.0932026348621D-02
   217  2.1600000000000D+00 -9.5059385187866D-02 -5.6661358387069D-02
   218  2.1700000000000D+00 -1.0071750803772D-01 -5.2515726860629D-02
   219  2.1800000000000D+00 -1.0583954062256D-01 -4.8499188843375D-02
   220  2.1900000000000D+00 -1.1043480449956D-01 -4.4615370408843D-02
   221  2.2000000000000D+00 -1.1451350270387D-01 -4.0867463269454D-02
   222  2.2100000000000D+00 -1.1808670523705D-01 -3.7258221857094D-02
   223  2.2200000000000D+00 -1.2116633450279D-01 -3.3789960818985D-02
   224  2.2300000000000D+00 -1.2376515077363D-01 -3.0464552916221D-02
   225  2.2400000000000D+00 -1.2589673790370D-01 -2.7283427308075D-02
   226  2.2500000000000D+00 -1.2757548913131D-01 -2.4247568212677D-02
   227  2.2600000000000D+00 -1.2881659324042D-01 -2.1357513919777D-02
   228  2.2700000000000D+00 -1.2963602642961D-01 -1.8613354735092D-02
   229  2.2800000000000D+00 -1.3005051818184D-01 -1.6014738210469D-02
   230  2.2900000000000D+00 -1.3007757206645D-01 -1.3560860256365D-02
   231  2.3000000000000D+00 -1.2973545491852D-01 -1.1250465094734D-02
   232  2.3100000000000D+00 -1.2904306576704D-01 -9.0818780921414D-03
   233  2.3200000000000D+00 -1.2802004994074D-01 -7.0529722595870D-03
   234  2.3300000000000D+00 -1.2668691084094D-01 -5.1611378600378D-03
   235  2.3400000000000D+00 -1.2506497302209D-01 -3.4032912247972D-03
   236  2.3500000000000D+00 -1.2317592213608D-01 -1.7759958811854D-03
   237  2.3600000000000D+00 -1.2104161932156D-01 -2.7550875768310D-04
   238  2.3700000000000D+00 -1.1868383953884D-01  1.1021461397469D-03
   239  2.3800000000000D+00 -1.1612413223897D-01  2.3611351993241D-03
   240  2.3900000000000D+00 -1.1338318227984D-01  3.5056410546628D-03
   241  2.4000000000000D+00 -1.1048107208951D-01  4.5399255784861D-03
   242  2.4100000000000D+00 -1.0743718830357D-01  5.4682986763661D-03
   243  2.4200000000000D+00 -1.0427042338908D-01  6.2951614762325D-03
   244  2.4300000000000D+00 -1.0099893756987D-01  7.0249384151466D-03
   245  2.4400000000000D+00 -9.7640192253679D-02  7.6620778315513D-03
   246  2.4500000000000D+00 -9.4210957879441D-02  8.2110460772352D-03
   247  2.4600000000000D+00 -9.0727274634218D-02  8.6763092655610D-03
   248  2.4700000000000D+00 -8.7204445626273D-02  9.0623232758202D-03
   249  2.4800000000000D+00 -8.3657026014163D-02  9.3735225772800D-03
   250  2.4900000000000D+00 -8.0098814907974D-02  9.6143096561326D-03
   251  2.5000000000000D+00 -7.6542849260136D-02  9.7890448518800D-03
   252  2.5100000000000D+00 -7.3001399972462D-02  9.9020366773692D-03
   253  2.5200000000000D+00 -6.9485970670993D-02  9.9575327616819D-03
   254  2.5300000000000D+00 -6.6007298341718D-02  9.9597112092690D-03
   255  2.5400000000000D+00 -6.2575356070979D-02  9.9126724565429D-03
   256  2.5500000000000D+00 -5.9199358263343D-02  9.8204317479561D-03
   257  2.5600000000000D+00 -5.5887767583256D-02  9.6869120324669D-03
   258  2.5700000000000D+00 -5.2648303799058D-02  9.5159373455916D-03
   259  2.5800000000000D+00 -4.9487954887489D-02  9.3112268004377D-03
   260  2.5900000000000D+00 -4.6412989684839D-02  9.0763889919389D-03
   261  2.6000000000000D+00 -4.3428972180624D-02  8.8149168565453D-03
   262  2.6100000000000D+00 -4.0540777808999D-02  8.5301831185556D-03
   263  2.6200000000000D+00 -3.7752611097842D-02  8.2254361389360D-03
   264  2.6300000000000D+00 -3.5068024541809D-02  7.9037961395393D-03
   265  2.6400000000000D+00 -3.2489939402273D-02  7.5682520497826D-03
   266  2.6500000000000D+00 -3.0020667358401D-02  7.2216586520335D-03
   267  2.6600000000000D+00 -2.7661933711553D-02  6.8667342341651D-03
   268  2.6700000000000D+00 -2.5414901108508D-02  6.5060585154017D-03
   269  2.6800000000000D+00 -2.3280194722965D-02  6.1420710848621D-03
   270  2.6900000000000D+00 -2.1257927339284D-02  5.7770699114961D-03
   271  2.7000000000000D+00 -1.9347726539548D-02  5.4132106285689D-03
   272  2.7100000000000D+00 -1.7548761831095D-02  5.0525059397853D-03
   273  2.7200000000000D+00 -1.5859773015591D-02  4.6968255224213D-03
   274  2.7300000000000D+00 -1.4279098119330D-02  4.3478960006718D-03
   275  2.7400000000000D+00 -1.2804701518911D-02  4.0073011696406D-03
   276  2.7500000000000D+00 -1.1434202449441D-02  3.6764825049752D-03
   277  2.7600000000000D+00 -1.0164903407130D-02  3.3567398526356D-03
   278  2.7700000000000D+00 -8.9938193970408D-03  3.0492326228555D-03
   279  2.7800000000000D+00 -7.9177062468938D-03  2.7549809252214D-03
   280  2.7900000000000D+00 -6.9330897844256D-03  2.4748671576597D-03
   281  2.8000000000000D+00 -6.0362929784338D-03  2.2096373452083D-03
   282  2.8100000000000D+00 -5.2234637087181D-03  1.9599028851013D-03
   283  2.8200000000000D+00 -4.4906016474514D-03  1.7261422683523D-03
   284  2.8300000000000D+00 -3.8335847091980D-03  1.5087030306244D-03
   285  2.8400000000000D+00 -3.2481946178399D-03  1.3078037250073D-03
   286  2.8500000000000D+00 -2.7301419948057D-03  1.1235360261837D-03
   287  2.8600000000000D+00 -2.2750905448196D-03  9.5586688574790D-04
   288  2.8700000000000D+00 -1.8786793694169D-03  8.0464051219913D-04
   289  2.8800000000000D+00 -1.5365449374948D-03  6.6958054881795D-04
   290  2.8900000000000D+00 -1.2443419079527D-03  5.5029216345437D-04
   291  2.9000000000000D+00 -9.9776252675432D-04  4.4626420936899D-04
   292  2.9100000000000D+00 -7.9267896398964D-04  3.5690756787929D-04
   293  2.9200000000000D+00 -6.2482004592631D-04  2.8145777810750D-04
   294  2.9300000000000D+00 -4.8986721107972D-04  2.1900053633969D-04
   295  2.9400000000000D+00 -3.8372675592188D-04  1.6854360476992D-04
   296  2.9500000000000D+00 -3.0111237057255D-04  1.2851539689455D-04
   297  2.9600000000000D+00 -2.4129599009279D-04  9.8805589423807D-05
   298  2.9700000000000D+00 -2.0155500169277D-04  7.8441424267285D-05
   299  2.9800000000000D+00 -1.8138689785599D-04  6.7149439608285D-05
   300  2.9900000000000D+00 -1.7373852394385D-04  6.2107710398263D-05
   301  3.0000000000000D+00 -1.6634587212036D-04  5.8471620823532D-05
   302  3.0100000000000D+00 -1.5114718727610D-04  5.2912410018928D-05
   303  3.0200000000000D+00 -1.1389084298086D-04  3.9804978407660D-05
   304  3.0300000000000D+00 -6.8577118940669D-05  2.3979584007138D-05
   305  3.0400000000000D+00 -2.4351268804109D-05  8.5280252866570D-06
   306  3.0500000000000D+00  6.2937989522169D-06 -2.1842629748024D-06
   307  3.0600000000000D+00  1.5349380635289D-05 -5.3244630709118D-06
   308  3.0700000000000D+00  1.2606686413619D-05 -4.3719482705022D-06
   309  3.0800000000000D+00  3.3512187758405D-06 -1.1620556173330D-06
   310  3.0900000000000D+00 -2.2018945261541D-06  7.6128137266737D-07
   311  3.1000000000000D+00 -3.4771256211398D-06  1.2015546093813D-06
   312  3.1100000000000D+00 -2.4490565633004D-06  8.4591703074807D-07
   313  3.1200000000000D+00 -5.3596501028829D-08  1.8505314417804D-08
   314  3.1300000000000D+00  3.3534365121250D-07 -1.1739619017670D-07
   315  3.1400000000000D+00  4.1875957026181D-07 -1.4659820745381D-07
   316  3.1500000000000D+00  2.4090754154284D-07 -8.4336254644176D-08
   317  3.1600000000000D+00  0.0000000000000D+00  0.0000000000000D+00
   318  3.1700000000000D+00  0.0000000000000D+00  0.0000000000000D+00
   319  3.1800000000000D+00  0.0000000000000D+00  0.0000000000000D+00
   320  3.1900000000000D+00  0.0000000000000D+00  0.0000000000000D+00
   321  3.2000000000000D+00  0.0000000000000D+00  0.0000000000000D+00
   322  3.2100000000000D+00  0.0000000000000D+00  0.0000000000000D+00
   323  3.2200000000000D+00  0.0000000000000D+00  0.0000000000000D+00
   324  3.2300000000000D+00  0.0000000000000D+00  0.0000000000000D+00
   325  3.2400000000000D+00  0.0000000000000D+00  0.0000000000000D+00
   326  3.2500000000000D+00  0.0000000000000D+00  0.0000000000000D+00
   327  3.2600000000000D+00  0.0000000000000D+00  0.0000000000000D+00
   328  3.2700000000000D+00  0.0000000000000D+00  0.0000000000000D+00
   329  3.2800000000000D+00  0.0000000000000D+00  0.0000000000000D+00
   330  3.2900000000000D+00  0.0000000000000D+00  0.0000000000000D+00
   331  3.3000000000000D+00  0.0000000000000D+00  0.0000000000000D+00
   332  3.3100000000000D+00  0.0000000000000D+00  0.0000000000000D+00
   333  3.3200000000000D+00  0.0000000000000D+00  0.0000000000000D+00
   334  3.3300000000000D+00  0.0000000000000D+00  0.0000000000000D+00
   335  3.3400000000000D+00  0.0000000000000D+00  0.0000000000000D+00
   336  3.3500000000000D+00  0.0000000000000D+00  0.0000000000000D+00
   337  3.3600000000000D+00  0.0000000000000D+00  0.0000000000000D+00
   338  3.3700000000000D+00  0.0000000000000D+00  0.0000000000000D+00
   339  3.3800000000000D+00  0.0000000000000D+00  0.0000000000000D+00
   340  3.3900000000000D+00  0.0000000000000D+00  0.0000000000000D+00
   341  3.4000000000000D+00  0.0000000000000D+00  0.0000000000000D+00
   342  3.4100000000000D+00  0.0000000000000D+00  0.0000000000000D+00
   343  3.4200000000000D+00  0.0000000000000D+00  0.0000000000000D+00
   344  3.4300000000000D+00  0.0000000000000D+00  0.0000000000000D+00
   345  3.4400000000000D+00  0.0000000000000D+00  0.0000000000000D+00
   346  3.4500000000000D+00  0.0000000000000D+00  0.0000000000000D+00
   347  3.4600000000000D+00  0.0000000000000D+00  0.0000000000000D+00
   348  3.4700000000000D+00  0.0000000000000D+00  0.0000000000000D+00
   349  3.4800000000000D+00  0.0000000000000D+00  0.0000000000000D+00
   350  3.4900000000000D+00  0.0000000000000D+00  0.0000000000000D+00
   351  3.5000000000000D+00  0.0000000000000D+00  0.0000000000000D+00
   352  3.5100000000000D+00  0.0000000000000D+00  0.0000000000000D+00
   353  3.5200000000000D+00  0.0000000000000D+00  0.0000000000000D+00
   354  3.5300000000000D+00  0.0000000000000D+00  0.0000000000000D+00
   355  3.5400000000000D+00  0.0000000000000D+00  0.0000000000000D+00
   356  3.5500000000000D+00  0.0000000000000D+00  0.0000000000000D+00
   357  3.5600000000000D+00  0.0000000000000D+00  0.0000000000000D+00
   358  3.5700000000000D+00  0.0000000000000D+00  0.0000000000000D+00
   359  3.5800000000000D+00  0.0000000000000D+00  0.0000000000000D+00
   360  3.5900000000000D+00  0.0000000000000D+00  0.0000000000000D+00
   361  3.6000000000000D+00  0.0000000000000D+00  0.0000000000000D+00
   362  3.6100000000000D+00  0.0000000000000D+00  0.0000000000000D+00
   363  3.6200000000000D+00  0.0000000000000D+00  0.0000000000000D+00
   364  3.6300000000000D+00  0.0000000000000D+00  0.0000000000000D+00
   365  3.6400000000000D+00  0.0000000000000D+00  0.0000000000000D+00
   366  3.6500000000000D+00  0.0000000000000D+00  0.0000000000000D+00
   367  3.6600000000000D+00  0.0000000000000D+00  0.0000000000000D+00
   368  3.6700000000000D+00  0.0000000000000D+00  0.0000000000000D+00
   369  3.6800000000000D+00  0.0000000000000D+00  0.0000000000000D+00
   370  3.6900000000000D+00  0.0000000000000D+00  0.0000000000000D+00
   371  3.7000000000000D+00  0.0000000000000D+00  0.0000000000000D+00
   372  3.7100000000000D+00  0.0000000000000D+00  0.0000000000000D+00
   373  3.7200000000000D+00  0.0000000000000D+00  0.0000000000000D+00
   374  3.7300000000000D+00  0.0000000000000D+00  0.0000000000000D+00
   375  3.7400000000000D+00  0.0000000000000D+00  0.0000000000000D+00
   376  3.7500000000000D+00  0.0000000000000D+00  0.0000000000000D+00
   377  3.7600000000000D+00  0.0000000000000D+00  0.0000000000000D+00
   378  3.7700000000000D+00  0.0000000000000D+00  0.0000000000000D+00
   379  3.7800000000000D+00  0.0000000000000D+00  0.0000000000000D+00
   380  3.7900000000000D+00  0.0000000000000D+00  0.0000000000000D+00
   381  3.8000000000000D+00  0.0000000000000D+00  0.0000000000000D+00
   382  3.8100000000000D+00  0.0000000000000D+00  0.0000000000000D+00
   383  3.8200000000000D+00  0.0000000000000D+00  0.0000000000000D+00
   384  3.8300000000000D+00  0.0000000000000D+00  0.0000000000000D+00
   385  3.8400000000000D+00  0.0000000000000D+00  0.0000000000000D+00
   386  3.8500000000000D+00  0.0000000000000D+00  0.0000000000000D+00
   387  3.8600000000000D+00  0.0000000000000D+00  0.0000000000000D+00
   388  3.8700000000000D+00  0.0000000000000D+00  0.0000000000000D+00
   389  3.8800000000000D+00  0.0000000000000D+00  0.0000000000000D+00
   390  3.8900000000000D+00  0.0000000000000D+00  0.0000000000000D+00
   391  3.9000000000000D+00  0.0000000000000D+00  0.0000000000000D+00
   392  3.9100000000000D+00  0.0000000000000D+00  0.0000000000000D+00
   393  3.9200000000000D+00  0.0000000000000D+00  0.0000000000000D+00
   394  3.9300000000000D+00  0.0000000000000D+00  0.0000000000000D+00
   395  3.9400000000000D+00  0.0000000000000D+00  0.0000000000000D+00
   396  3.9500000000000D+00  0.0000000000000D+00  0.0000000000000D+00
   397  3.9600000000000D+00  0.0000000000000D+00  0.0000000000000D+00
   398  3.9700000000000D+00  0.0000000000000D+00  0.0000000000000D+00
   399  3.9800000000000D+00  0.0000000000000D+00  0.0000000000000D+00
   400  3.9900000000000D+00  0.0000000000000D+00  0.0000000000000D+00
   401  4.0000000000000D+00  0.0000000000000D+00  0.0000000000000D+00
   402  4.0100000000000D+00  0.0000000000000D+00  0.0000000000000D+00
   403  4.0200000000000D+00  0.0000000000000D+00  0.0000000000000D+00
   404  4.0300000000000D+00  0.0000000000000D+00  0.0000000000000D+00
   405  4.0400000000000D+00  0.0000000000000D+00  0.0000000000000D+00
   406  4.0500000000000D+00  0.0000000000000D+00  0.0000000000000D+00
   407  4.0600000000000D+00  0.0000000000000D+00  0.0000000000000D+00
   408  4.0700000000000D+00  0.0000000000000D+00  0.0000000000000D+00
   409  4.0800000000000D+00  0.0000000000000D+00  0.0000000000000D+00
   410  4.0900000000000D+00  0.0000000000000D+00  0.0000000000000D+00
   411  4.1000000000000D+00  0.0000000000000D+00  0.0000000000000D+00
   412  4.1100000000000D+00  0.0000000000000D+00  0.0000000000000D+00
   413  4.1200000000000D+00  0.0000000000000D+00  0.0000000000000D+00
   414  4.1300000000000D+00  0.0000000000000D+00  0.0000000000000D+00
   415  4.1400000000000D+00  0.0000000000000D+00  0.0000000000000D+00
   416  4.1500000000000D+00  0.0000000000000D+00  0.0000000000000D+00
   417  4.1600000000000D+00  0.0000000000000D+00  0.0000000000000D+00
   418  4.1700000000000D+00  0.0000000000000D+00  0.0000000000000D+00
   419  4.1800000000000D+00  0.0000000000000D+00  0.0000000000000D+00
   420  4.1900000000000D+00  0.0000000000000D+00  0.0000000000000D+00
   421  4.2000000000000D+00  0.0000000000000D+00  0.0000000000000D+00
   422  4.2100000000000D+00  0.0000000000000D+00  0.0000000000000D+00