Y     ONCVPSP-3.3.1  r_core=   2.32341   2.11194   1.85223
     39.0000     11.0000      210904    zatom,zion,pspd
     8      11   2     4   600     0    pspcod,pspxc,lmax,lloc,mmax,r2well
  5.99000000  0.00000000  0.00000000    rchrg fchrg qchrg
     2     2     2     0     0    nproj
     1     1           extension_switch
   0                         5.3016872758375D+00  8.6047099449023D-01
     1  0.0000000000000D+00  1.1182499370932D-11 -2.8767155324516D-11
     2  1.0000000000000D-02  4.1674504060810D-02 -3.1365787778324D-03
     3  2.0000000000000D-02  8.3319062904116D-02 -6.2848220538551D-03
     4  3.0000000000000D-02  1.2490368145359D-01 -9.4561811747127D-03
     5  4.0000000000000D-02  1.6639826543138D-01 -1.2661682571688D-02
     6  5.0000000000000D-02  2.0777257304471D-01 -1.5911718765069D-02
     7  6.0000000000000D-02  2.4899616820958D-01 -1.9215843502640D-02
     8  7.0000000000000D-02  2.9003837581054D-01 -2.2582572376517D-02
     9  8.0000000000000D-02  3.3086823948471D-01 -2.6019190233826D-02
    10  9.0000000000000D-02  3.7145448240406D-01 -2.9531566660922D-02
    11  1.0000000000000D-01  4.1176547151352D-01 -3.3123980778435D-02
    12  1.1000000000000D-01  4.5176918566352D-01 -3.6798956535261D-02
    13  1.2000000000000D-01  4.9143318805371D-01 -4.0557109634207D-02
    14  1.3000000000000D-01  5.3072460338095D-01 -4.4397007160412D-02
    15  1.4000000000000D-01  5.6961010005835D-01 -4.8315040916304D-02
    16  1.5000000000000D-01  6.0805587784373D-01 -5.2305315393926D-02
    17  1.6000000000000D-01  6.4602766118548D-01 -5.6359551237419D-02
    18  1.7000000000000D-01  6.8349069856184D-01 -6.0467004965564D-02
    19  1.8000000000000D-01  7.2040976805525D-01 -6.4614405636968D-02
    20  1.9000000000000D-01  7.5674918936817D-01 -6.8785909049213D-02
    21  2.0000000000000D-01  7.9247284244983D-01 -7.2963069968338D-02
    22  2.1000000000000D-01  8.2754419286515D-01 -7.7124832787070D-02
    23  2.2000000000000D-01  8.6192632399787D-01 -8.1247540909478D-02
    24  2.3000000000000D-01  8.9558197614017D-01 -8.5304965056971D-02
    25  2.4000000000000D-01  9.2847359247988D-01 -8.9268350585889D-02
    26  2.5000000000000D-01  9.6056337195585D-01 -9.3106483801396D-02
    27  2.6000000000000D-01  9.9181332891011D-01 -9.6785777145877D-02
    28  2.7000000000000D-01  1.0221853594243D+00 -1.0027037303372D-01
    29  2.8000000000000D-01  1.0516413141866D+00 -1.0352226599813D-01
    30  2.9000000000000D-01  1.0801430776939D+00 -1.0650144271060D-01
    31  3.0000000000000D-01  1.1076526535546D+00 -1.0916603933002D-01
    32  3.1000000000000D-01  1.1341322556169D+00 -1.1147251553652D-01
    33  3.2000000000000D-01  1.1595444046086D+00 -1.1337584450635D-01
    34  3.3000000000000D-01  1.1838520299385D+00 -1.1482971798770D-01
    35  3.4000000000000D-01  1.2070185762721D+00 -1.1578676554498D-01
    36  3.5000000000000D-01  1.2290081144590D+00 -1.1619878695060D-01
    37  3.6000000000000D-01  1.2497854563598D+00 -1.1601699661917D-01
    38  3.7000000000000D-01  1.2693162730857D+00 -1.1519227890045D-01
    39  3.8000000000000D-01  1.2875672161378D+00 -1.1367545297345D-01
    40  3.9000000000000D-01  1.3045060409062D+00 -1.1141754601669D-01
    41  4.0000000000000D-01  1.3201017319644D+00 -1.0837007326834D-01
    42  4.1000000000000D-01  1.3343246295731D+00 -1.0448532353502D-01
    43  4.2000000000000D-01  1.3471465567914D+00 -9.9716648660516D-02
    44  4.3000000000000D-01  1.3585409465717D+00 -9.4018755425041D-02
    45  4.4000000000000D-01  1.3684829682098D+00 -8.7347998313188D-02
    46  4.5000000000000D-01  1.3769496525043D+00 -7.9662671563157D-02
    47  4.6000000000000D-01  1.3839200149778D+00 -7.0923298893527D-02
    48  4.7000000000000D-01  1.3893751765065D+00 -6.1092919294511D-02
    49  4.8000000000000D-01  1.3932984807057D+00 -5.0137367270584D-02
    50  4.9000000000000D-01  1.3956756074218D+00 -3.8025545929339D-02
    51  5.0000000000000D-01  1.3964946816866D+00 -2.4729691327734D-02
    52  5.1000000000000D-01  1.3957463775012D+00 -1.0225626512245D-02
    53  5.2000000000000D-01  1.3934240158292D+00  5.5069962772925D-03
    54  5.3000000000000D-01  1.3895236561955D+00  2.2484466728628D-02
    55  5.4000000000000D-01  1.3840441813052D+00  4.0718802340870D-02
    56  5.5000000000000D-01  1.3769873741240D+00  6.0217550451168D-02
    57  5.6000000000000D-01  1.3683579868817D+00  8.0983607718262D-02
    58  5.7000000000000D-01  1.3581638014962D+00  1.0301505830321D-01
    59  5.8000000000000D-01  1.3464156809401D+00  1.2630503190636D-01
    60  5.9000000000000D-01  1.3331276111143D+00  1.5084158273190D-01
    61  6.0000000000000D-01  1.3183167328234D+00  1.7660759035669D-01
    62  6.1000000000000D-01  1.3020033634943D+00  2.0358068337885D-01
    63  6.2000000000000D-01  1.2842110083147D+00  2.3173318661604D-01
    64  6.3000000000000D-01  1.2649663605201D+00  2.6103209251026D-01
    65  6.4000000000000D-01  1.2442992905975D+00  2.9143905728097D-01
    66  6.5000000000000D-01  1.2222428242272D+00  3.2291042224676D-01
    67  6.6000000000000D-01  1.1988331088297D+00  3.5539726061199D-01
    68  6.7000000000000D-01  1.1741093686399D+00  3.8884544988799D-01
    69  6.8000000000000D-01  1.1481138482784D+00  4.2319576998860D-01
    70  6.9000000000000D-01  1.1208917448451D+00  4.5838402690926D-01
    71  7.0000000000000D-01  1.0924911286136D+00  4.9434120176634D-01
    72  7.1000000000000D-01  1.0629628524565D+00  5.3099362484215D-01
    73  7.2000000000000D-01  1.0323604501879D+00  5.6826317414789D-01
    74  7.3000000000000D-01  1.0007400240595D+00  6.0606749788740D-01
    75  7.4000000000000D-01  9.6816012170243D-01  6.4432026007491D-01
    76  7.5000000000000D-01  9.3468160285772D-01  6.8293140843389D-01
    77  7.6000000000000D-01  9.0036749628727D-01  7.2180746358145D-01
    78  7.7000000000000D-01  8.6528284731006D-01  7.6085182838300D-01
    79  7.8000000000000D-01  8.2949455645328D-01  7.9996511624768D-01
    80  7.9000000000000D-01  7.9307120975552D-01  8.3904549702590D-01
    81  8.0000000000000D-01  7.5608290130225D-01  8.7798905906699D-01
    82  8.1000000000000D-01  7.1860104861560D-01  9.1669018589797D-01
    83  8.2000000000000D-01  6.8069820155904D-01  9.5504194589508D-01
    84  8.3000000000000D-01  6.4244784545367D-01  9.9293649323748D-01
    85  8.4000000000000D-01  6.0392419913555D-01  1.0302654783588D+00
    86  8.5000000000000D-01  5.6520200871342D-01  1.0669204660471D+00
    87  8.6000000000000D-01  5.2635633781229D-01  1.1027933592874D+00
    88  8.7000000000000D-01  4.8746235511091D-01  1.1377768268952D+00
    89  8.8000000000000D-01  4.4859512000043D-01  1.1717647329512D+00
    90  8.9000000000000D-01  4.0982936720641D-01  1.2046525660223D+00
    91  9.0000000000000D-01  3.7123929122741D-01  1.2363378661368D+00
    92  9.1000000000000D-01  3.3289833145069D-01  1.2667206474754D+00
    93  9.2000000000000D-01  2.9487895880848D-01  1.2957038147458D+00
    94  9.3000000000000D-01  2.5725246483681D-01  1.3231935712238D+00
    95  9.4000000000000D-01  2.2008875399395D-01  1.3490998164674D+00
    96  9.5000000000000D-01  1.8345614008561D-01  1.3733365317535D+00
    97  9.6000000000000D-01  1.4742114763054D-01  1.3958221513261D+00
    98  9.7000000000000D-01  1.1204831898207D-01  1.4164799176098D+00
    99  9.8000000000000D-01  7.7400027999697D-02  1.4352382186064D+00
   100  9.9000000000000D-01  4.3536301038644D-02  1.4520309057700D+00
   101  1.0000000000000D+00  1.0514645995652D-02  1.4667975907458D+00
   102  1.0100000000000D+00 -2.1610109883949D-02  1.4794839194510D+00
   103  1.0200000000000D+00 -5.2785972769866D-02  1.4900418220825D+00
   104  1.0300000000000D+00 -8.2963924953277D-02  1.4984297377491D+00
   105  1.0400000000000D+00 -1.1209805691319D-01  1.5046128125477D+00
   106  1.0500000000000D+00 -1.4014568820227D-01  1.5085630700215D+00
   107  1.0600000000000D+00 -1.6706747666615D-01  1.5102595530865D+00
   108  1.0700000000000D+00 -1.9282751555824D-01  1.5096884366370D+00
   109  1.0800000000000D+00 -2.1739341816660D-01  1.5068431101927D+00
   110  1.0900000000000D+00 -2.4073638962937D-01  1.5017242301022D+00
   111  1.1000000000000D+00 -2.6283128566234D-01  1.4943397409442D+00
   112  1.1100000000000D+00 -2.8365665799424D-01  1.4847048659561D+00
   113  1.1200000000000D+00 -3.0319478635570D-01  1.4728420664444D+00
   114  1.1300000000000D+00 -3.2143169693564D-01  1.4587809703124D+00
   115  1.1400000000000D+00 -3.3835716727040D-01  1.4425582699632D+00
   116  1.1500000000000D+00 -3.5396471760098D-01  1.4242175900194D+00
   117  1.1600000000000D+00 -3.6825158879119D-01  1.4038093254395D+00
   118  1.1700000000000D+00 -3.8121870696508D-01  1.3813904507750D+00
   119  1.1800000000000D+00 -3.9287063506504D-01  1.3570243014152D+00
   120  1.1900000000000D+00 -4.0321551161117D-01  1.3307803278620D+00
   121  1.2000000000000D+00 -4.1226497698918D-01  1.3027338241841D+00
   122  1.2100000000000D+00 -4.2003408764962D-01  1.2729656319324D+00
   123  1.2200000000000D+00 -4.2654121864640D-01  1.2415618209031D+00
   124  1.2300000000000D+00 -4.3180795501088D-01  1.2086133482937D+00
   125  1.2400000000000D+00 -4.3585897249864D-01  1.1742156978792D+00
   126  1.2500000000000D+00 -4.3872190826819D-01  1.1384685008940D+00
   127  1.2600000000000D+00 -4.4042722213190D-01  1.1014751404741D+00
   128  1.2700000000000D+00 -4.4100804903603D-01  1.0633423415404D+00
   129  1.2800000000000D+00 -4.4050004344694D-01  1.0241797480517D+00
   130  1.2900000000000D+00 -4.3894121638478D-01  9.8409948967775D-01
   131  1.3000000000000D+00 -4.3637176585394D-01  9.4321573993650D-01
   132  1.3100000000000D+00 -4.3283390143060D-01  9.0164426787812D-01
   133  1.3200000000000D+00 -4.2837166381692D-01  8.5950198545444D-01
   134  1.3300000000000D+00 -4.2303074015992D-01  8.1690649267323D-01
   135  1.3400000000000D+00 -4.1685827595143D-01  7.7397562268511D-01
   136  1.3500000000000D+00 -4.0990268433811D-01  7.3082698889859D-01
   137  1.3600000000000D+00 -4.0221345365598D-01  6.8757753619594D-01
   138  1.3700000000000D+00 -3.9384095402381D-01  6.4434309834664D-01
   139  1.3800000000000D+00 -3.8483624379089D-01  6.0123796353330D-01
   140  1.3900000000000D+00 -3.7525087665690D-01  5.5837445001126D-01
   141  1.4000000000000D+00 -3.6513671024722D-01  5.1586249374003D-01
   142  1.4100000000000D+00 -3.5454571688408D-01  4.7380924969473D-01
   143  1.4200000000000D+00 -3.4352979734923D-01  4.3231870873920D-01
   144  1.4300000000000D+00 -3.3214059828203D-01  3.9149133140881D-01
   145  1.4400000000000D+00 -3.2042933395515D-01  3.5142370029903D-01
   146  1.4500000000000D+00 -3.0844661305160D-01  3.1220819233395D-01
   147  1.4600000000000D+00 -2.9624227101805D-01  2.7393267205729D-01
   148  1.4700000000000D+00 -2.8386520866194D-01  2.3668020735838D-01
   149  1.4800000000000D+00 -2.7136323736350D-01  2.0052880812935D-01
   150  1.4900000000000D+00 -2.5878293155944D-01  1.6555118922940D-01
   151  1.5000000000000D+00 -2.4616948876809D-01  1.3181455794235D-01
   152  1.5100000000000D+00 -2.3356659763860D-01  9.9380426774302D-02
   153  1.5200000000000D+00 -2.2101631433320D-01  6.8304451896144D-02
   154  1.5300000000000D+00 -2.0855894744441D-01  3.8636297251890D-02
   155  1.5400000000000D+00 -1.9623295184190D-01  1.0419524881462D-02
   156  1.5500000000000D+00 -1.8407483134848D-01 -1.6308489378040D-02
   157  1.5600000000000D+00 -1.7211905070420D-01 -4.1516614095187D-02
   158  1.5700000000000D+00 -1.6039795649543D-01 -6.5179995793988D-02
   159  1.5800000000000D+00 -1.4894170742864D-01 -8.7280067367989D-02
   160  1.5900000000000D+00 -1.3777821356711D-01 -1.0780453294244D-01
   161  1.6000000000000D+00 -1.2693308470690D-01 -1.2674732926450D-01
   162  1.6100000000000D+00 -1.1642958752830D-01 -1.4410856514165D-01
   163  1.6200000000000D+00 -1.0628861147351D-01 -1.5989443960519D-01
   164  1.6300000000000D+00 -9.6528643010713D-02 -1.7411714024948D-01
   165  1.6400000000000D+00 -8.7165748033506D-02 -1.8679472293008D-01
   166  1.6500000000000D+00 -7.8213562063991D-02 -1.9795097425253D-01
   167  1.6600000000000D+00 -6.9683287846921D-02 -2.0761525840997D-01
   168  1.6700000000000D+00 -6.1583699987447D-02 -2.1582234985057D-01
   169  1.6800000000000D+00 -5.3921156107432D-02 -2.2261225355923D-01
   170  1.6900000000000D+00 -4.6699612767097D-02 -2.2803001881581D-01
   171  1.7000000000000D+00 -3.9920654015412D-02 -2.3212552187144D-01
   172  1.7100000000000D+00 -3.3583502016498D-02 -2.3495331257528D-01
   173  1.7200000000000D+00 -2.7685090337239D-02 -2.3657227811269D-01
   174  1.7300000000000D+00 -2.2220086532470D-02 -2.3704546570890D-01
   175  1.7400000000000D+00 -1.7180801395697D-02 -2.3644027636942D-01
   176  1.7500000000000D+00 -1.2557400609459D-02 -2.3482772155511D-01
   177  1.7600000000000D+00 -8.3382822989650D-03 -2.3228115518323D-01
   178  1.7700000000000D+00 -4.5103932672969D-03 -2.2887525586071D-01
   179  1.7800000000000D+00 -1.0596537614756D-03 -2.2468472437698D-01
   180  1.7900000000000D+00  2.0287425472144D-03 -2.1978337613943D-01
   181  1.8000000000000D+00  4.7703345982673D-03 -2.1424421689102D-01
   182  1.8100000000000D+00  7.1813068837663D-03 -2.0813924089316D-01
   183  1.8200000000000D+00  9.2783202692215D-03 -2.0153895923191D-01
   184  1.8300000000000D+00  1.1078423179441D-02 -1.9451219860950D-01
   185  1.8400000000000D+00  1.2598936888956D-02 -1.8712582105724D-01
   186  1.8500000000000D+00  1.3857355335984D-02 -1.7944449556532D-01
   187  1.8600000000000D+00  1.4871242123976D-02 -1.7153046693956D-01
   188  1.8700000000000D+00  1.5658132024388D-02 -1.6344334372916D-01
   189  1.8800000000000D+00  1.6235440918476D-02 -1.5523991706028D-01
   190  1.8900000000000D+00  1.6620380811759D-02 -1.4697399970580D-01
   191  1.9000000000000D+00  1.6829879265328D-02 -1.3869628318648D-01
   192  1.9100000000000D+00  1.6880503945564D-02 -1.3045421466082D-01
   193  1.9200000000000D+00  1.6788393307897D-02 -1.2229189627047D-01
   194  1.9300000000000D+00  1.6569194154478D-02 -1.1425000893565D-01
   195  1.9400000000000D+00  1.6238004443274D-02 -1.0636575518683D-01
   196  1.9500000000000D+00  1.5809323134806D-02 -9.8672826235919D-02
   197  1.9600000000000D+00  1.5297005589148D-02 -9.1201388276564D-02
   198  1.9700000000000D+00  1.4714225790795D-02 -8.3978091597415D-02
   199  1.9800000000000D+00  1.4073444523702D-02 -7.7026099444734D-02
   200  1.9900000000000D+00  1.3386383617513D-02 -7.0365136624385D-02
   201  2.0000000000000D+00  1.2664006608399D-02 -6.4011558509455D-02
   202  2.0100000000000D+00  1.1916504551734D-02 -5.7978436288870D-02
   203  2.0200000000000D+00  1.1153288306563D-02 -5.2275661990467D-02
   204  2.0300000000000D+00  1.0382985550823D-02 -4.6910067768908D-02
   205  2.0400000000000D+00  9.6134433619260D-03 -4.1885561481294D-02
   206  2.0500000000000D+00  8.8517356278718D-03 -3.7203276038570D-02
   207  2.0600000000000D+00  8.1041747691511D-03 -3.2861730645171D-02
   208  2.0700000000000D+00  7.3763281420045D-03 -2.8857004489286D-02
   209  2.0800000000000D+00  6.6730378541014D-03 -2.5182919042381D-02
   210  2.0900000000000D+00  5.9984444188426D-03 -2.1831229517994D-02
   211  2.1000000000000D+00  5.3560133973988D-03 -1.8791822886923D-02
   212  2.1100000000000D+00  4.7485647021794D-03 -1.6052921082639D-02
   213  2.1200000000000D+00  4.1783043255116D-03 -1.3601288096278D-02
   214  2.1300000000000D+00  3.6468578936396D-03 -1.1422439403542D-02
   215  2.1400000000000D+00  3.1553056622772D-03 -9.5008515959501D-03
   216  2.1500000000000D+00  2.7042186174404D-03 -7.8201714221033D-03
   217  2.1600000000000D+00  2.2936952733668D-03 -6.3634226721869D-03
   218  2.1700000000000D+00  1.9233984408365D-03 -5.1132079909883D-03
   219  2.1800000000000D+00  1.5925922692045D-03 -4.0519071189811D-03
   220  2.1900000000000D+00  1.3001783212455D-03 -3.1618667388635D-03
   221  2.2000000000000D+00  1.0447307888986D-03 -2.4255824678743D-03
   222  2.2100000000000D+00  8.2453096157748D-04 -1.8258734393045D-03
   223  2.2200000000000D+00  6.3759912713450D-04 -1.3460427958786D-03
   224  2.2300000000000D+00  4.8172548340357D-04 -9.7002988462007D-04
   225  2.2400000000000D+00  3.5449850847701D-04 -6.8254854226796D-04
   226  2.2500000000000D+00  2.5335609519519D-04 -4.6931544058946D-04
   227  2.2600000000000D+00  1.7551069629246D-04 -3.1675781986186D-04
   228  2.2700000000000D+00  1.1800744035343D-04 -2.1236874963999D-04
   229  2.2800000000000D+00  7.7661725434976D-05 -1.4462167751782D-04
   230  2.2900000000000D+00  5.2198003567845D-05 -1.0576978697838D-04
   231  2.3000000000000D+00  3.9220983086409D-05 -8.9117459361794D-05
   232  2.3100000000000D+00  3.4472140488021D-05 -8.5026580085252D-05
   233  2.3200000000000D+00  3.1271180305804D-05 -7.9425189697890D-05
   234  2.3300000000000D+00  2.3368424424411D-05 -5.9718140829859D-05
   235  2.3400000000000D+00  1.1836088875882D-05 -3.0248362081123D-05
   236  2.3500000000000D+00  1.1224671530855D-06 -2.8590262630723D-06
   237  2.3600000000000D+00 -2.8697373902090D-06  7.4566743396541D-06
   238  2.3700000000000D+00 -2.3555341845498D-06  6.1275305388238D-06
   239  2.3800000000000D+00  4.7538801164598D-08 -1.2397208101345D-07
   240  2.3900000000000D+00  6.4586654364896D-07 -1.6867983109964D-06
   241  2.4000000000000D+00  4.8162624364496D-07 -1.2593864683737D-06
   242  2.4100000000000D+00 -2.0725871167916D-08  5.2731784009182D-08
   243  2.4200000000000D+00 -8.2701798887309D-08  2.1041399711329D-07
   244  2.4300000000000D+00 -5.4838351110925D-08  1.3952243853939D-07
   245  2.4400000000000D+00  0.0000000000000D+00  0.0000000000000D+00
   246  2.4500000000000D+00  0.0000000000000D+00  0.0000000000000D+00
   247  2.4600000000000D+00  0.0000000000000D+00  0.0000000000000D+00
   248  2.4700000000000D+00  0.0000000000000D+00  0.0000000000000D+00
   249  2.4800000000000D+00  0.0000000000000D+00  0.0000000000000D+00
   250  2.4900000000000D+00  0.0000000000000D+00  0.0000000000000D+00
   251  2.5000000000000D+00  0.0000000000000D+00  0.0000000000000D+00
   252  2.5100000000000D+00  0.0000000000000D+00  0.0000000000000D+00
   253  2.5200000000000D+00  0.0000000000000D+00  0.0000000000000D+00
   254  2.5300000000000D+00  0.0000000000000D+00  0.0000000000000D+00
   255  2.5400000000000D+00  0.0000000000000D+00  0.0000000000000D+00
   256  2.5500000000000D+00  0.0000000000000D+00  0.0000000000000D+00
   257  2.5600000000000D+00  0.0000000000000D+00  0.0000000000000D+00
   258  2.5700000000000D+00  0.0000000000000D+00  0.0000000000000D+00
   259  2.5800000000000D+00  0.0000000000000D+00  0.0000000000000D+00
   260  2.5900000000000D+00  0.0000000000000D+00  0.0000000000000D+00
   261  2.6000000000000D+00  0.0000000000000D+00  0.0000000000000D+00
   262  2.6100000000000D+00  0.0000000000000D+00  0.0000000000000D+00
   263  2.6200000000000D+00  0.0000000000000D+00  0.0000000000000D+00
   264  2.6300000000000D+00  0.0000000000000D+00  0.0000000000000D+00
   265  2.6400000000000D+00  0.0000000000000D+00  0.0000000000000D+00
   266  2.6500000000000D+00  0.0000000000000D+00  0.0000000000000D+00
   267  2.6600000000000D+00  0.0000000000000D+00  0.0000000000000D+00
   268  2.6700000000000D+00  0.0000000000000D+00  0.0000000000000D+00
   269  2.6800000000000D+00  0.0000000000000D+00  0.0000000000000D+00
   270  2.6900000000000D+00  0.0000000000000D+00  0.0000000000000D+00
   271  2.7000000000000D+00  0.0000000000000D+00  0.0000000000000D+00
   272  2.7100000000000D+00  0.0000000000000D+00  0.0000000000000D+00
   273  2.7200000000000D+00  0.0000000000000D+00  0.0000000000000D+00
   274  2.7300000000000D+00  0.0000000000000D+00  0.0000000000000D+00
   275  2.7400000000000D+00  0.0000000000000D+00  0.0000000000000D+00
   276  2.7500000000000D+00  0.0000000000000D+00  0.0000000000000D+00
   277  2.7600000000000D+00  0.0000000000000D+00  0.0000000000000D+00
   278  2.7700000000000D+00  0.0000000000000D+00  0.0000000000000D+00
   279  2.7800000000000D+00  0.0000000000000D+00  0.0000000000000D+00
   280  2.7900000000000D+00  0.0000000000000D+00  0.0000000000000D+00
   281  2.8000000000000D+00  0.0000000000000D+00  0.0000000000000D+00
   282  2.8100000000000D+00  0.0000000000000D+00  0.0000000000000D+00
   283  2.8200000000000D+00  0.0000000000000D+00  0.0000000000000D+00
   284  2.8300000000000D+00  0.0000000000000D+00  0.0000000000000D+00
   285  2.8400000000000D+00  0.0000000000000D+00  0.0000000000000D+00
   286  2.8500000000000D+00  0.0000000000000D+00  0.0000000000000D+00
   287  2.8600000000000D+00  0.0000000000000D+00  0.0000000000000D+00
   288  2.8700000000000D+00  0.0000000000000D+00  0.0000000000000D+00
   289  2.8800000000000D+00  0.0000000000000D+00  0.0000000000000D+00
   290  2.8900000000000D+00  0.0000000000000D+00  0.0000000000000D+00
   291  2.9000000000000D+00  0.0000000000000D+00  0.0000000000000D+00
   292  2.9100000000000D+00  0.0000000000000D+00  0.0000000000000D+00
   293  2.9200000000000D+00  0.0000000000000D+00  0.0000000000000D+00
   294  2.9300000000000D+00  0.0000000000000D+00  0.0000000000000D+00
   295  2.9400000000000D+00  0.0000000000000D+00  0.0000000000000D+00
   296  2.9500000000000D+00  0.0000000000000D+00  0.0000000000000D+00
   297  2.9600000000000D+00  0.0000000000000D+00  0.0000000000000D+00
   298  2.9700000000000D+00  0.0000000000000D+00  0.0000000000000D+00
   299  2.9800000000000D+00  0.0000000000000D+00  0.0000000000000D+00
   300  2.9900000000000D+00  0.0000000000000D+00  0.0000000000000D+00
   301  3.0000000000000D+00  0.0000000000000D+00  0.0000000000000D+00
   302  3.0100000000000D+00  0.0000000000000D+00  0.0000000000000D+00
   303  3.0200000000000D+00  0.0000000000000D+00  0.0000000000000D+00
   304  3.0300000000000D+00  0.0000000000000D+00  0.0000000000000D+00
   305  3.0400000000000D+00  0.0000000000000D+00  0.0000000000000D+00
   306  3.0500000000000D+00  0.0000000000000D+00  0.0000000000000D+00
   307  3.0600000000000D+00  0.0000000000000D+00  0.0000000000000D+00
   308  3.0700000000000D+00  0.0000000000000D+00  0.0000000000000D+00
   309  3.0800000000000D+00  0.0000000000000D+00  0.0000000000000D+00
   310  3.0900000000000D+00  0.0000000000000D+00  0.0000000000000D+00
   311  3.1000000000000D+00  0.0000000000000D+00  0.0000000000000D+00
   312  3.1100000000000D+00  0.0000000000000D+00  0.0000000000000D+00
   313  3.1200000000000D+00  0.0000000000000D+00  0.0000000000000D+00
   314  3.1300000000000D+00  0.0000000000000D+00  0.0000000000000D+00
   315  3.1400000000000D+00  0.0000000000000D+00  0.0000000000000D+00
   316  3.1500000000000D+00  0.0000000000000D+00  0.0000000000000D+00
   317  3.1600000000000D+00  0.0000000000000D+00  0.0000000000000D+00
   318  3.1700000000000D+00  0.0000000000000D+00  0.0000000000000D+00
   319  3.1800000000000D+00  0.0000000000000D+00  0.0000000000000D+00
   320  3.1900000000000D+00  0.0000000000000D+00  0.0000000000000D+00
   321  3.2000000000000D+00  0.0000000000000D+00  0.0000000000000D+00
   322  3.2100000000000D+00  0.0000000000000D+00  0.0000000000000D+00
   323  3.2200000000000D+00  0.0000000000000D+00  0.0000000000000D+00
   324  3.2300000000000D+00  0.0000000000000D+00  0.0000000000000D+00
   325  3.2400000000000D+00  0.0000000000000D+00  0.0000000000000D+00
   326  3.2500000000000D+00  0.0000000000000D+00  0.0000000000000D+00
   327  3.2600000000000D+00  0.0000000000000D+00  0.0000000000000D+00
   328  3.2700000000000D+00  0.0000000000000D+00  0.0000000000000D+00
   329  3.2800000000000D+00  0.0000000000000D+00  0.0000000000000D+00
   330  3.2900000000000D+00  0.0000000000000D+00  0.0000000000000D+00
   331  3.3000000000000D+00  0.0000000000000D+00  0.0000000000000D+00
   332  3.3100000000000D+00  0.0000000000000D+00  0.0000000000000D+00
   333  3.3200000000000D+00  0.0000000000000D+00  0.0000000000000D+00
   334  3.3300000000000D+00  0.0000000000000D+00  0.0000000000000D+00
   335  3.3400000000000D+00  0.0000000000000D+00  0.0000000000000D+00
   336  3.3500000000000D+00  0.0000000000000D+00  0.0000000000000D+00
   337  3.3600000000000D+00  0.0000000000000D+00  0.0000000000000D+00
   338  3.3700000000000D+00  0.0000000000000D+00  0.0000000000000D+00
   339  3.3800000000000D+00  0.0000000000000D+00  0.0000000000000D+00
   340  3.3900000000000D+00  0.0000000000000D+00  0.0000000000000D+00
   341  3.4000000000000D+00  0.0000000000000D+00  0.0000000000000D+00
   342  3.4100000000000D+00  0.0000000000000D+00  0.0000000000000D+00
   343  3.4200000000000D+00  0.0000000000000D+00  0.0000000000000D+00
   344  3.4300000000000D+00  0.0000000000000D+00  0.0000000000000D+00
   345  3.4400000000000D+00  0.0000000000000D+00  0.0000000000000D+00
   346  3.4500000000000D+00  0.0000000000000D+00  0.0000000000000D+00
   347  3.4600000000000D+00  0.0000000000000D+00  0.0000000000000D+00
   348  3.4700000000000D+00  0.0000000000000D+00  0.0000000000000D+00
   349  3.4800000000000D+00  0.0000000000000D+00  0.0000000000000D+00
   350  3.4900000000000D+00  0.0000000000000D+00  0.0000000000000D+00
   351  3.5000000000000D+00  0.0000000000000D+00  0.0000000000000D+00
   352  3.5100000000000D+00  0.0000000000000D+00  0.0000000000000D+00
   353  3.5200000000000D+00  0.0000000000000D+00  0.0000000000000D+00
   354  3.5300000000000D+00  0.0000000000000D+00  0.0000000000000D+00
   355  3.5400000000000D+00  0.0000000000000D+00  0.0000000000000D+00
   356  3.5500000000000D+00  0.0000000000000D+00  0.0000000000000D+00
   357  3.5600000000000D+00  0.0000000000000D+00  0.0000000000000D+00
   358  3.5700000000000D+00  0.0000000000000D+00  0.0000000000000D+00
   359  3.5800000000000D+00  0.0000000000000D+00  0.0000000000000D+00
   360  3.5900000000000D+00  0.0000000000000D+00  0.0000000000000D+00
   361  3.6000000000000D+00  0.0000000000000D+00  0.0000000000000D+00
   362  3.6100000000000D+00  0.0000000000000D+00  0.0000000000000D+00
   363  3.6200000000000D+00  0.0000000000000D+00  0.0000000000000D+00
   364  3.6300000000000D+00  0.0000000000000D+00  0.0000000000000D+00
   365  3.6400000000000D+00  0.0000000000000D+00  0.0000000000000D+00
   366  3.6500000000000D+00  0.0000000000000D+00  0.0000000000000D+00
   367  3.6600000000000D+00  0.0000000000000D+00  0.0000000000000D+00
   368  3.6700000000000D+00  0.0000000000000D+00  0.0000000000000D+00
   369  3.6800000000000D+00  0.0000000000000D+00  0.0000000000000D+00
   370  3.6900000000000D+00  0.0000000000000D+00  0.0000000000000D+00
   371  3.7000000000000D+00  0.0000000000000D+00  0.0000000000000D+00
   372  3.7100000000000D+00  0.0000000000000D+00  0.0000000000000D+00
   373  3.7200000000000D+00  0.0000000000000D+00  0.0000000000000D+00
   374  3.7300000000000D+00  0.0000000000000D+00  0.0000000000000D+00
   375  3.7400000000000D+00  0.0000000000000D+00  0.0000000000000D+00
   376  3.7500000000000D+00  0.0000000000000D+00  0.0000000000000D+00
   377  3.7600000000000D+00  0.0000000000000D+00  0.0000000000000D+00
   378  3.7700000000000D+00  0.0000000000000D+00  0.0000000000000D+00
   379  3.7800000000000D+00  0.0000000000000D+00  0.0000000000000D+00
   380  3.7900000000000D+00  0.0000000000000D+00  0.0000000000000D+00
   381  3.8000000000000D+00  0.0000000000000D+00  0.0000000000000D+00
   382  3.8100000000000D+00  0.0000000000000D+00  0.0000000000000D+00
   383  3.8200000000000D+00  0.0000000000000D+00  0.0000000000000D+00
   384  3.8300000000000D+00  0.0000000000000D+00  0.0000000000000D+00
   385  3.8400000000000D+00  0.0000000000000D+00  0.0000000000000D+00
   386  3.8500000000000D+00  0.0000000000000D+00  0.0000000000000D+00
   387  3.8600000000000D+00  0.0000000000000D+00  0.0000000000000D+00
   388  3.8700000000000D+00  0.0000000000000D+00  0.0000000000000D+00
   389  3.8800000000000D+00  0.0000000000000D+00  0.0000000000000D+00
   390  3.8900000000000D+00  0.0000000000000D+00  0.0000000000000D+00
   391  3.9000000000000D+00  0.0000000000000D+00  0.0000000000000D+00
   392  3.9100000000000D+00  0.0000000000000D+00  0.0000000000000D+00
   393  3.9200000000000D+00  0.0000000000000D+00  0.0000000000000D+00
   394  3.9300000000000D+00  0.0000000000000D+00  0.0000000000000D+00
   395  3.9400000000000D+00  0.0000000000000D+00  0.0000000000000D+00
   396  3.9500000000000D+00  0.0000000000000D+00  0.0000000000000D+00
   397  3.9600000000000D+00  0.0000000000000D+00  0.0000000000000D+00
   398  3.9700000000000D+00  0.0000000000000D+00  0.0000000000000D+00
   399  3.9800000000000D+00  0.0000000000000D+00  0.0000000000000D+00
   400  3.9900000000000D+00  0.0000000000000D+00  0.0000000000000D+00
   401  4.0000000000000D+00  0.0000000000000D+00  0.0000000000000D+00
   402  4.0100000000000D+00  0.0000000000000D+00  0.0000000000000D+00
   403  4.0200000000000D+00  0.0000000000000D+00  0.0000000000000D+00
   404  4.0300000000000D+00  0.0000000000000D+00  0.0000000000000D+00
   405  4.0400000000000D+00  0.0000000000000D+00  0.0000000000000D+00
   406  4.0500000000000D+00  0.0000000000000D+00  0.0000000000000D+00
   407  4.0600000000000D+00  0.0000000000000D+00  0.0000000000000D+00
   408  4.0700000000000D+00  0.0000000000000D+00  0.0000000000000D+00
   409  4.0800000000000D+00  0.0000000000000D+00  0.0000000000000D+00
   410  4.0900000000000D+00  0.0000000000000D+00  0.0000000000000D+00
   411  4.1000000000000D+00  0.0000000000000D+00  0.0000000000000D+00
   412  4.1100000000000D+00  0.0000000000000D+00  0.0000000000000D+00
   413  4.1200000000000D+00  0.0000000000000D+00  0.0000000000000D+00
   414  4.1300000000000D+00  0.0000000000000D+00  0.0000000000000D+00
   415  4.1400000000000D+00  0.0000000000000D+00  0.0000000000000D+00
   416  4.1500000000000D+00  0.0000000000000D+00  0.0000000000000D+00
   417  4.1600000000000D+00  0.0000000000000D+00  0.0000000000000D+00
   418  4.1700000000000D+00  0.0000000000000D+00  0.0000000000000D+00
   419  4.1800000000000D+00  0.0000000000000D+00  0.0000000000000D+00
   420  4.1900000000000D+00  0.0000000000000D+00  0.0000000000000D+00
   421  4.2000000000000D+00  0.0000000000000D+00  0.0000000000000D+00
   422  4.2100000000000D+00  0.0000000000000D+00  0.0000000000000D+00