Y     ONCVPSP-3.3.1  r_core=   2.32341   2.11194   1.85223
     39.0000     11.0000      210904    zatom,zion,pspd
     8      11   2     4   600     0    pspcod,pspxc,lmax,lloc,mmax,r2well
  5.99000000  0.00000000  0.00000000    rchrg fchrg qchrg
     2     4     3     0    nproj
     3     1           extension_switch
     4     4     0    nprojso
   0                         8.6053006383306D-01  5.3039520832701D+00
     1  0.0000000000000D+00 -2.8755817171877D-11  1.1179945857975D-11
     2  1.0000000000000D-02 -3.1498592867992D-03  4.1666422097942D-02
     3  2.0000000000000D-02 -6.3113723205109D-03  8.3302919232104D-02
     4  3.0000000000000D-02 -9.4959797247679D-03  1.2487951657162D-01
     5  4.0000000000000D-02 -1.2714697264158D-02  1.6636614006734D-01
     6  5.0000000000000D-02 -1.5977906876225D-02  2.0773256812966D-01
     7  6.0000000000000D-02 -1.9295151836956D-02  2.4894838484276D-01
     8  7.0000000000000D-02 -2.2674937403792D-02  2.8998293521425D-01
     9  8.0000000000000D-02 -2.6124538251424D-02  3.3080528294813D-01
    10  9.0000000000000D-02 -2.9649813979943D-02  3.7138417121492D-01
    11  1.0000000000000D-01 -3.3255033932383D-02  4.1168798687635D-01
    12  1.1000000000000D-01 -3.6942712509633D-02  4.5168472860313D-01
    13  1.2000000000000D-01 -4.0713456115278D-02  4.9134197930229D-01
    14  1.3000000000000D-01 -4.4565822801299D-02  5.3062688324722D-01
    15  1.4000000000000D-01 -4.8496195618296D-02  5.6950612827693D-01
    16  1.5000000000000D-01 -5.2498670600913D-02  6.0794593340279D-01
    17  1.6000000000000D-01 -5.6564960241158D-02  6.4591204213090D-01
    18  1.7000000000000D-01 -6.0684313219417D-02  6.8336972177564D-01
    19  1.8000000000000D-01 -6.4843451075692D-02  7.2028376900633D-01
    20  1.9000000000000D-01 -6.9026522412269D-02  7.5661852183326D-01
    21  2.0000000000000D-01 -7.3215075124226D-02  7.9233787820247D-01
    22  2.1000000000000D-01 -7.7388047056071D-02  8.2740532133058D-01
    23  2.2000000000000D-01 -8.1521775382285D-02  8.6178395187186D-01
    24  2.3000000000000D-01 -8.5590024906604D-02  8.9543652696949D-01
    25  2.4000000000000D-01 -8.9564035370396D-02  9.2832550620274D-01
    26  2.5000000000000D-01 -9.3412587754855D-02  9.6041310440011D-01
    27  2.6000000000000D-01 -9.7102089455288D-02  9.9166135124763D-01
    28  2.7000000000000D-01 -1.0059667809947D-01  1.0220321575798D+00
    29  2.8000000000000D-01 -1.0385834367581D-01  1.0514873881991D+00
    30  2.9000000000000D-01 -1.0684706853215D-01  1.0799889410301D+00
    31  3.0000000000000D-01 -1.0952098470210D-01  1.1074988323724D+00
    32  3.1000000000000D-01 -1.1183654791455D-01  1.1339792879779D+00
    33  3.2000000000000D-01 -1.1374872754238D-01  1.1593928396396D+00
    34  3.3000000000000D-01 -1.1521121165088D-01  1.1837024269407D+00
    35  3.4000000000000D-01 -1.1617662621326D-01  1.2068715037779D+00
    36  3.5000000000000D-01 -1.1659676747278D-01  1.2288641492369D+00
    37  3.6000000000000D-01 -1.1642284634650D-01  1.2496451823662D+00
    38  3.7000000000000D-01 -1.1560574368721D-01  1.2691802803659D+00
    39  3.8000000000000D-01 -1.1409627514627D-01  1.2874360996757D+00
    40  3.9000000000000D-01 -1.1184546431265D-01  1.3043803994242D+00
    41  4.0000000000000D-01 -1.0880482274198D-01  1.3199821666748D+00
    42  4.1000000000000D-01 -1.0492663543490D-01  1.3342117428836D+00
    43  4.2000000000000D-01 -1.0016425027602D-01  1.3470409509648D+00
    44  4.3000000000000D-01 -9.4472369904597D-02  1.3584432223442D+00
    45  4.4000000000000D-01 -8.7807344455105D-02  1.3683937233695D+00
    46  4.5000000000000D-01 -8.0127463580873D-02  1.3768694804328D+00
    47  4.6000000000000D-01 -7.1393246156976D-02  1.3838495031590D+00
    48  4.7000000000000D-01 -6.1567726049882D-02  1.3893149050053D+00
    49  4.8000000000000D-01 -5.0616732340839D-02  1.3932490206214D+00
    50  4.9000000000000D-01 -3.8509162398074D-02  1.3956375193195D+00
    51  5.0000000000000D-01 -2.5217246209416D-02  1.3964685140117D+00
    52  5.1000000000000D-01 -1.0716800411808D-02  1.3957326649819D+00
    53  5.2000000000000D-01  5.0125295121480D-03  1.3934232778714D+00
    54  5.3000000000000D-01  2.1987040358866D-02  1.3895363952756D+00
    55  5.4000000000000D-01  4.0218757087637D-02  1.3840708813667D+00
    56  5.5000000000000D-01  5.9715234843543D-02  1.3770284989828D+00
    57  5.6000000000000D-01  8.0479378433310D-02  1.3684139786468D+00
    58  5.7000000000000D-01  1.0250928049413D-01  1.3582350790105D+00
    59  5.8000000000000D-01  1.2579807951464D-01  1.3465026382490D+00
    60  5.9000000000000D-01  1.5033383877928D-01  1.3332306159668D+00
    61  6.0000000000000D-01  1.7609944721249D-01  1.3184361252135D+00
    62  6.1000000000000D-01  2.0307254299853D-01  1.3021394542469D+00
    63  6.2000000000000D-01  2.3122546074662D-01  1.2843640777249D+00
    64  6.3000000000000D-01  2.6052520285835D-01  1.2651366570500D+00
    65  6.4000000000000D-01  2.9093343563939D-01  1.2444870296380D+00
    66  6.5000000000000D-01  3.2240651057545D-01  1.2224481869300D+00
    67  6.6000000000000D-01  3.5489551106945D-01  1.1990562410173D+00
    68  6.7000000000000D-01  3.8834632480942D-01  1.1743503797971D+00
    69  6.8000000000000D-01  4.2269974180714D-01  1.1483728106325D+00
    70  6.9000000000000D-01  4.5789157801695D-01  1.1211686925406D+00
    71  7.0000000000000D-01  4.9385282431172D-01  1.0927860569855D+00
    72  7.1000000000000D-01  5.3050982046144D-01  1.0632757174080D+00
    73  7.2000000000000D-01  5.6778445362752D-01  1.0326911676765D+00
    74  7.3000000000000D-01  6.0559438075529D-01  1.0010884696968D+00
    75  7.4000000000000D-01  6.4385327411878D-01  9.6852613047065D-01
    76  7.5000000000000D-01  6.8247108914509D-01  9.3506496894687D-01
    77  7.6000000000000D-01  7.2135435352299D-01  9.0076797305623D-01
    78  7.7000000000000D-01  7.6040647648121D-01  8.6570014737402D-01
    79  7.8000000000000D-01  7.9952807700704D-01  8.2992835189989D-01
    80  7.9000000000000D-01  8.3861732966723D-01  7.9352113249145D-01
    81  8.0000000000000D-01  8.7757032658956D-01  7.5654854353135D-01
    82  8.1000000000000D-01  9.1628145406648D-01  7.1908196344940D-01
    83  8.2000000000000D-01  9.5464378215307D-01  6.8119390375975D-01
    84  8.3000000000000D-01  9.9254946554913D-01  6.4295781230913D-01
    85  8.4000000000000D-01  1.0298901539815D+00  6.0444787146542D-01
    86  8.5000000000000D-01  1.0665574102378D+00  5.6573879200482D-01
    87  8.6000000000000D-01  1.1024431339459D+00  5.2690560348292D-01
    88  8.7000000000000D-01  1.1374399891487D+00  4.8802344189698D-01
    89  8.8000000000000D-01  1.1714418336838D+00  4.4916733546609D-01
    90  8.9000000000000D-01  1.2043441483549D+00  4.1041198937084D-01
    91  9.0000000000000D-01  1.2360444638616D+00  3.7183157030528D-01
    92  9.1000000000000D-01  1.2664427834519D+00  3.3349949170103D-01
    93  9.2000000000000D-01  1.2954419992635D+00  2.9548820048640D-01
    94  9.3000000000000D-01  1.3229483003374D+00  2.5786896624229D-01
    95  9.4000000000000D-01  1.3488715703132D+00  2.2071167361103D-01
    96  9.5000000000000D-01  1.3731257728515D+00  1.8408461880514D-01
    97  9.6000000000000D-01  1.3956293228770D+00  1.4805431104910D-01
    98  9.7000000000000D-01  1.4163054417940D+00  1.1268527976912D-01
    99  9.8000000000000D-01  1.4350824948922D+00  7.8039888324942D-02
   100  9.9000000000000D-01  1.4518943092402D+00  4.4178155050841D-02
   101  1.0000000000000D+00  1.4666804704491D+00  1.1157582344108D-02
   102  1.0100000000000D+00  1.4793865967883D+00 -2.0967005494429D-02
   103  1.0200000000000D+00  1.4899645892354D+00 -5.2143614999988D-02
   104  1.0300000000000D+00  1.4983728561586D+00 -8.2323226235828D-02
   105  1.0400000000000D+00  1.5045765114522D+00 -1.1145992485500D-01
   106  1.0500000000000D+00  1.5085475450624D+00 -1.3951102299145D-01
   107  1.0600000000000D+00  1.5102649649881D+00 -1.6643716849453D-01
   108  1.0700000000000D+00  1.5097149099704D+00 -1.9220244206911D-01
   109  1.0800000000000D+00  1.5068907322308D+00 -2.1677444193768D-01
   110  1.0900000000000D+00  1.5017930497722D+00 -2.4012435570089D-01
   111  1.1000000000000D+00  1.4944297678870D+00 -2.6222701912005D-01
   112  1.1100000000000D+00  1.4848160696972D+00 -2.8306096161707D-01
   113  1.1200000000000D+00  1.4729743756846D+00 -3.0260843833728D-01
   114  1.1300000000000D+00  1.4589342723426D+00 -3.2085544868911D-01
   115  1.1400000000000D+00  1.4427324102103D+00 -3.3779174132507D-01
   116  1.1500000000000D+00  1.4244123717278D+00 -3.5341080559971D-01
   117  1.1600000000000D+00  1.4040245094927D+00 -3.6770984959620D-01
   118  1.1700000000000D+00  1.3816257556607D+00 -3.8068976488030D-01
   119  1.1800000000000D+00  1.3572794033385D+00 -3.9235507818182D-01
   120  1.1900000000000D+00  1.3310548610083D+00 -4.0271389028440D-01
   121  1.2000000000000D+00  1.3030273811340D+00 -4.1177780244972D-01
   122  1.2100000000000D+00  1.2732777642297D+00 -4.1956183075880D-01
   123  1.2200000000000D+00  1.2418920397776D+00 -4.2608430879746D-01
   124  1.2300000000000D+00  1.2089611255371D+00 -4.3136677918174D-01
   125  1.2400000000000D+00  1.1745804668744D+00 -4.3543387445972D-01
   126  1.2500000000000D+00  1.1388496577959D+00 -4.3831318794819D-01
   127  1.2600000000000D+00  1.1018720455393D+00 -4.4003513514394D-01
   128  1.2700000000000D+00  1.0637543206030D+00 -4.4063280636566D-01
   129  1.2800000000000D+00  1.0246060941421D+00 -4.4014181130303D-01
   130  1.2900000000000D+00  9.8453946477748D-01 -4.3860011621335D-01
   131  1.3000000000000D+00  9.4366857686724D-01 -4.3604787451431D-01
   132  1.3100000000000D+00  9.0210917231596D-01 -4.3252725153271D-01
   133  1.3200000000000D+00  8.5997813806422D-01 -4.2808224421762D-01
   134  1.3300000000000D+00  8.1739305135521D-01 -4.2275849661571D-01
   135  1.3400000000000D+00  7.7447172492595D-01 -4.1660311192394D-01
   136  1.3500000000000D+00  7.3133175421812D-01 -4.0966446194842D-01
   137  1.3600000000000D+00  6.8809006868042D-01 -4.0199199478289D-01
   138  1.3700000000000D+00  6.4486248925891D-01 -3.9363604154068D-01
   139  1.3800000000000D+00  6.0176329398951D-01 -3.8464762293493D-01
   140  1.3900000000000D+00  5.5890479371358D-01 -3.7507825652441D-01
   141  1.4000000000000D+00  5.1639691975423D-01 -3.6497976540741D-01
   142  1.4100000000000D+00  4.7434682526118D-01 -3.5440408910406D-01
   143  1.4200000000000D+00  4.3285850210563D-01 -3.4340309742168D-01
   144  1.4300000000000D+00  3.9203241467271D-01 -3.3202840794724D-01
   145  1.4400000000000D+00  3.5196515224769D-01 -3.2033120790828D-01
   146  1.4500000000000D+00  3.1274910126964D-01 -3.0836208102586D-01
   147  1.4600000000000D+00  2.7447213859530D-01 -2.9617083993422D-01
   148  1.4700000000000D+00  2.3721734718541D-01 -2.8380636483430D-01
   149  1.4800000000000D+00  2.0106275470998D-01 -2.7131644875221D-01
   150  1.4900000000000D+00  1.6608109644818D-01 -2.5874765005902D-01
   151  1.5000000000000D+00  1.3233960266955D-01 -2.4614515252187D-01
   152  1.5100000000000D+00  9.9899811343233D-02 -2.3355263336866D-01
   153  1.5200000000000D+00  6.8817406480539D-02 -2.2101213967559D-01
   154  1.5300000000000D+00  3.9142082131917D-02 -2.0856397327937D-01
   155  1.5400000000000D+00  1.0917432587424D-02 -1.9624658460895D-01
   156  1.5500000000000D+00 -1.5819132054722D-02 -1.8409647533645D-01
   157  1.5600000000000D+00 -4.1036444233918D-02 -1.7214811030639D-01
   158  1.5700000000000D+00 -6.4709612629201D-02 -1.6043383842063D-01
   159  1.5800000000000D+00 -8.6820030734678D-02 -1.4898382285861D-01
   160  1.5900000000000D+00 -1.0735536189121D-01 -1.3782598025199D-01
   161  1.6000000000000D+00 -1.2630950085386D-01 -1.2698592899001D-01
   162  1.6100000000000D+00 -1.4368251341450D-01 -1.1648694629251D-01
   163  1.6200000000000D+00 -1.5948055475571D-01 -1.0634993400167D-01
   164  1.6300000000000D+00 -1.7371576798593D-01 -9.6593392753310D-02
   165  1.6400000000000D+00 -1.8640616403826D-01 -8.7233404277072D-02
   166  1.6500000000000D+00 -1.9757548436378D-01 -7.8283621494578D-02
   167  1.6600000000000D+00 -2.0725304797684D-01 -6.9755266003398D-02
   168  1.6700000000000D+00 -2.1547358433250D-01 -6.1657132600080D-02
   169  1.6800000000000D+00 -2.2227705381971D-01 -5.3995600317842D-02
   170  1.6900000000000D+00 -2.2770846173181D-01 -4.6774648226974D-02
   171  1.7000000000000D+00 -2.3181764115397D-01 -3.9995883858051D-02
   172  1.7100000000000D+00 -2.3465909980592D-01 -3.3658553709299D-02
   173  1.7200000000000D+00 -2.3629168397408D-01 -2.7759616390497D-02
   174  1.7300000000000D+00 -2.3677840142497D-01 -2.2293765085463D-02
   175  1.7400000000000D+00 -2.3618661540967D-01 -1.7253336724397D-02
   176  1.7500000000000D+00 -2.3458730151877D-01 -1.2628523424072D-02
   177  1.7600000000000D+00 -2.3205377959619D-01 -8.4077498296894D-03
   178  1.7700000000000D+00 -2.2866069603683D-01 -4.5779891302111D-03
   179  1.7800000000000D+00 -2.2448272215284D-01 -1.1251872903636D-03
   180  1.7900000000000D+00 -2.1959364686284D-01  1.9654372329219D-03
   181  1.8000000000000D+00 -2.1406645030463D-01  4.7093988490024D-03
   182  1.8100000000000D+00 -2.0797310070731D-01  7.1228574054708D-03
   183  1.8200000000000D+00 -2.0138408657048D-01  9.2224503857294D-03
   184  1.8300000000000D+00 -1.9436821937394D-01  1.1025205441342D-02
   185  1.8400000000000D+00 -1.8699234834528D-01  1.2548424125406D-02
   186  1.8500000000000D+00 -1.7932112641446D-01  1.3809579897519D-02
   187  1.8600000000000D+00 -1.7141678392841D-01  1.4826216784936D-02
   188  1.8700000000000D+00 -1.6333891988485D-01  1.5615852030752D-02
   189  1.8800000000000D+00 -1.5514431916415D-01  1.6195885555489D-02
   190  1.8900000000000D+00 -1.4688678980249D-01  1.6583514421900D-02
   191  1.9000000000000D+00 -1.3861702004186D-01  1.6795652288729D-02
   192  1.9100000000000D+00 -1.3038245593049D-01  1.6848854230109D-02
   193  1.9200000000000D+00 -1.2222720071717D-01  1.6759247465453D-02
   194  1.9300000000000D+00 -1.1419193831673D-01  1.6542468832360D-02
   195  1.9400000000000D+00 -1.0631387606034D-01  1.6213607588768D-02
   196  1.9500000000000D+00 -9.8626711719129D-02  1.5787155258734D-02
   197  1.9600000000000D+00 -9.1160619698545D-02  1.5276961004689D-02
   198  1.9700000000000D+00 -8.3942260048181D-02  1.4696193823460D-02
   199  1.9800000000000D+00 -7.6994807215977D-02  1.4057310686385D-02
   200  1.9900000000000D+00 -7.0337998536727D-02  1.3372030744572D-02
   201  2.0000000000000D+00 -6.3988203120888D-02  1.2651315942503D-02
   202  2.0100000000000D+00 -5.7958506981159D-02  1.1905356778776D-02
   203  2.0200000000000D+00 -5.2258817929751D-02  1.1143564533076D-02
   204  2.0300000000000D+00 -4.6895984738136D-02  1.0374568219894D-02
   205  2.0400000000000D+00 -4.1873932582326D-02  9.6062171033100D-03
   206  2.0500000000000D+00 -3.7193812262647D-02  8.8455880387999D-03
   207  2.0600000000000D+00 -3.2854161311206D-02  8.0989971229712D-03
   208  2.0700000000000D+00 -2.8851077549812D-02  7.3720160218255D-03
   209  2.0800000000000D+00 -2.5178401257946D-02  6.6694917097064D-03
   210  2.0900000000000D+00 -2.1827906501603D-02  5.9955700453258D-03
   211  2.1000000000000D+00 -1.8789499020615D-02  5.3537223346622D-03
   212  2.1100000000000D+00 -1.6051419309016D-02  4.7467745549637D-03
   213  2.1200000000000D+00 -1.3600449588770D-02  4.1769390042284D-03
   214  2.1300000000000D+00 -1.1422123119054D-02  3.6458477765495D-03
   215  2.1400000000000D+00 -9.5009337155705D-03  3.1545876806815D-03
   216  2.1500000000000D+00 -7.8205446849943D-03  2.7037362655385D-03
   217  2.1600000000000D+00 -6.3639956085616D-03  2.2933985450080D-03
   218  2.1700000000000D+00 -5.1139040618611D-03  1.9232436966050D-03
   219  2.1800000000000D+00 -4.0526637684830D-03  1.5925420363238D-03
   220  2.1900000000000D+00 -3.1626343682510D-03  1.3002010309197D-03
   221  2.2000000000000D+00 -2.4263233392634D-03  1.0448004552199D-03
   222  2.2100000000000D+00 -1.8265605163403D-03  8.2462680575480D-04
   223  2.2200000000000D+00 -1.3466585328327D-03  6.3770515364355D-04
   224  2.2300000000000D+00 -9.7056497074583D-04  4.8183001185516D-04
   225  2.2400000000000D+00 -6.8300061180956D-04  3.5459366739156D-04
   226  2.2500000000000D+00 -4.6968783722375D-04  2.5343726393896D-04
   227  2.2600000000000D+00 -3.1705804476411D-04  1.7557599804110D-04
   228  2.2700000000000D+00 -2.1260704299121D-04  1.1805713786521D-04
   229  2.2800000000000D+00 -1.4480939576991D-04  7.7697592865695D-05
   230  2.2900000000000D+00 -1.0592081377413D-04  5.2222648057225D-05
   231  2.3000000000000D+00 -8.9246786220790D-05  3.9237343950429D-05
   232  2.3100000000000D+00 -8.5144283653943D-05  3.4482878388662D-05
   233  2.3200000000000D+00 -7.9528915235161D-05  3.1278136525214D-05
   234  2.3300000000000D+00 -5.9793028759953D-05  2.3372455624058D-05
   235  2.3400000000000D+00 -3.0285306158227D-05  1.1837807707874D-05
   236  2.3500000000000D+00 -2.8624537632713D-06  1.1226118278631D-06
   237  2.3600000000000D+00  7.4657546894227D-06 -2.8701215591481D-06
   238  2.3700000000000D+00  6.1349387647057D-06 -2.3558325979952D-06
   239  2.3800000000000D+00 -1.2412816527809D-07  4.7546313584489D-08
   240  2.3900000000000D+00 -1.6889195882260D-06  6.4596694243165D-07
   241  2.4000000000000D+00 -1.2609687462177D-06  4.8170009196912D-07
   242  2.4100000000000D+00  5.2799463735709D-08 -2.0730023330705D-08
   243  2.4200000000000D+00  2.1068405742036D-07 -8.2718367133300D-08
   244  2.4300000000000D+00  1.3970151157214D-07 -5.4849337272087D-08
   245  2.4400000000000D+00  0.0000000000000D+00  0.0000000000000D+00
   246  2.4500000000000D+00  0.0000000000000D+00  0.0000000000000D+00
   247  2.4600000000000D+00  0.0000000000000D+00  0.0000000000000D+00
   248  2.4700000000000D+00  0.0000000000000D+00  0.0000000000000D+00
   249  2.4800000000000D+00  0.0000000000000D+00  0.0000000000000D+00
   250  2.4900000000000D+00  0.0000000000000D+00  0.0000000000000D+00
   251  2.5000000000000D+00  0.0000000000000D+00  0.0000000000000D+00
   252  2.5100000000000D+00  0.0000000000000D+00  0.0000000000000D+00
   253  2.5200000000000D+00  0.0000000000000D+00  0.0000000000000D+00
   254  2.5300000000000D+00  0.0000000000000D+00  0.0000000000000D+00
   255  2.5400000000000D+00  0.0000000000000D+00  0.0000000000000D+00
   256  2.5500000000000D+00  0.0000000000000D+00  0.0000000000000D+00
   257  2.5600000000000D+00  0.0000000000000D+00  0.0000000000000D+00
   258  2.5700000000000D+00  0.0000000000000D+00  0.0000000000000D+00
   259  2.5800000000000D+00  0.0000000000000D+00  0.0000000000000D+00
   260  2.5900000000000D+00  0.0000000000000D+00  0.0000000000000D+00
   261  2.6000000000000D+00  0.0000000000000D+00  0.0000000000000D+00
   262  2.6100000000000D+00  0.0000000000000D+00  0.0000000000000D+00
   263  2.6200000000000D+00  0.0000000000000D+00  0.0000000000000D+00
   264  2.6300000000000D+00  0.0000000000000D+00  0.0000000000000D+00
   265  2.6400000000000D+00  0.0000000000000D+00  0.0000000000000D+00
   266  2.6500000000000D+00  0.0000000000000D+00  0.0000000000000D+00
   267  2.6600000000000D+00  0.0000000000000D+00  0.0000000000000D+00
   268  2.6700000000000D+00  0.0000000000000D+00  0.0000000000000D+00
   269  2.6800000000000D+00  0.0000000000000D+00  0.0000000000000D+00
   270  2.6900000000000D+00  0.0000000000000D+00  0.0000000000000D+00
   271  2.7000000000000D+00  0.0000000000000D+00  0.0000000000000D+00
   272  2.7100000000000D+00  0.0000000000000D+00  0.0000000000000D+00
   273  2.7200000000000D+00  0.0000000000000D+00  0.0000000000000D+00
   274  2.7300000000000D+00  0.0000000000000D+00  0.0000000000000D+00
   275  2.7400000000000D+00  0.0000000000000D+00  0.0000000000000D+00
   276  2.7500000000000D+00  0.0000000000000D+00  0.0000000000000D+00
   277  2.7600000000000D+00  0.0000000000000D+00  0.0000000000000D+00
   278  2.7700000000000D+00  0.0000000000000D+00  0.0000000000000D+00
   279  2.7800000000000D+00  0.0000000000000D+00  0.0000000000000D+00
   280  2.7900000000000D+00  0.0000000000000D+00  0.0000000000000D+00
   281  2.8000000000000D+00  0.0000000000000D+00  0.0000000000000D+00
   282  2.8100000000000D+00  0.0000000000000D+00  0.0000000000000D+00
   283  2.8200000000000D+00  0.0000000000000D+00  0.0000000000000D+00
   284  2.8300000000000D+00  0.0000000000000D+00  0.0000000000000D+00
   285  2.8400000000000D+00  0.0000000000000D+00  0.0000000000000D+00
   286  2.8500000000000D+00  0.0000000000000D+00  0.0000000000000D+00
   287  2.8600000000000D+00  0.0000000000000D+00  0.0000000000000D+00
   288  2.8700000000000D+00  0.0000000000000D+00  0.0000000000000D+00
   289  2.8800000000000D+00  0.0000000000000D+00  0.0000000000000D+00
   290  2.8900000000000D+00  0.0000000000000D+00  0.0000000000000D+00
   291  2.9000000000000D+00  0.0000000000000D+00  0.0000000000000D+00
   292  2.9100000000000D+00  0.0000000000000D+00  0.0000000000000D+00
   293  2.9200000000000D+00  0.0000000000000D+00  0.0000000000000D+00
   294  2.9300000000000D+00  0.0000000000000D+00  0.0000000000000D+00
   295  2.9400000000000D+00  0.0000000000000D+00  0.0000000000000D+00
   296  2.9500000000000D+00  0.0000000000000D+00  0.0000000000000D+00
   297  2.9600000000000D+00  0.0000000000000D+00  0.0000000000000D+00
   298  2.9700000000000D+00  0.0000000000000D+00  0.0000000000000D+00
   299  2.9800000000000D+00  0.0000000000000D+00  0.0000000000000D+00
   300  2.9900000000000D+00  0.0000000000000D+00  0.0000000000000D+00
   301  3.0000000000000D+00  0.0000000000000D+00  0.0000000000000D+00
   302  3.0100000000000D+00  0.0000000000000D+00  0.0000000000000D+00
   303  3.0200000000000D+00  0.0000000000000D+00  0.0000000000000D+00
   304  3.0300000000000D+00  0.0000000000000D+00  0.0000000000000D+00
   305  3.0400000000000D+00  0.0000000000000D+00  0.0000000000000D+00
   306  3.0500000000000D+00  0.0000000000000D+00  0.0000000000000D+00
   307  3.0600000000000D+00  0.0000000000000D+00  0.0000000000000D+00
   308  3.0700000000000D+00  0.0000000000000D+00  0.0000000000000D+00
   309  3.0800000000000D+00  0.0000000000000D+00  0.0000000000000D+00
   310  3.0900000000000D+00  0.0000000000000D+00  0.0000000000000D+00
   311  3.1000000000000D+00  0.0000000000000D+00  0.0000000000000D+00
   312  3.1100000000000D+00  0.0000000000000D+00  0.0000000000000D+00
   313  3.1200000000000D+00  0.0000000000000D+00  0.0000000000000D+00
   314  3.1300000000000D+00  0.0000000000000D+00  0.0000000000000D+00
   315  3.1400000000000D+00  0.0000000000000D+00  0.0000000000000D+00
   316  3.1500000000000D+00  0.0000000000000D+00  0.0000000000000D+00
   317  3.1600000000000D+00  0.0000000000000D+00  0.0000000000000D+00
   318  3.1700000000000D+00  0.0000000000000D+00  0.0000000000000D+00
   319  3.1800000000000D+00  0.0000000000000D+00  0.0000000000000D+00
   320  3.1900000000000D+00  0.0000000000000D+00  0.0000000000000D+00
   321  3.2000000000000D+00  0.0000000000000D+00  0.0000000000000D+00
   322  3.2100000000000D+00  0.0000000000000D+00  0.0000000000000D+00
   323  3.2200000000000D+00  0.0000000000000D+00  0.0000000000000D+00
   324  3.2300000000000D+00  0.0000000000000D+00  0.0000000000000D+00
   325  3.2400000000000D+00  0.0000000000000D+00  0.0000000000000D+00
   326  3.2500000000000D+00  0.0000000000000D+00  0.0000000000000D+00
   327  3.2600000000000D+00  0.0000000000000D+00  0.0000000000000D+00
   328  3.2700000000000D+00  0.0000000000000D+00  0.0000000000000D+00
   329  3.2800000000000D+00  0.0000000000000D+00  0.0000000000000D+00
   330  3.2900000000000D+00  0.0000000000000D+00  0.0000000000000D+00
   331  3.3000000000000D+00  0.0000000000000D+00  0.0000000000000D+00
   332  3.3100000000000D+00  0.0000000000000D+00  0.0000000000000D+00
   333  3.3200000000000D+00  0.0000000000000D+00  0.0000000000000D+00
   334  3.3300000000000D+00  0.0000000000000D+00  0.0000000000000D+00
   335  3.3400000000000D+00  0.0000000000000D+00  0.0000000000000D+00
   336  3.3500000000000D+00  0.0000000000000D+00  0.0000000000000D+00
   337  3.3600000000000D+00  0.0000000000000D+00  0.0000000000000D+00
   338  3.3700000000000D+00  0.0000000000000D+00  0.0000000000000D+00
   339  3.3800000000000D+00  0.0000000000000D+00  0.0000000000000D+00
   340  3.3900000000000D+00  0.0000000000000D+00  0.0000000000000D+00
   341  3.4000000000000D+00  0.0000000000000D+00  0.0000000000000D+00
   342  3.4100000000000D+00  0.0000000000000D+00  0.0000000000000D+00
   343  3.4200000000000D+00  0.0000000000000D+00  0.0000000000000D+00
   344  3.4300000000000D+00  0.0000000000000D+00  0.0000000000000D+00
   345  3.4400000000000D+00  0.0000000000000D+00  0.0000000000000D+00
   346  3.4500000000000D+00  0.0000000000000D+00  0.0000000000000D+00
   347  3.4600000000000D+00  0.0000000000000D+00  0.0000000000000D+00
   348  3.4700000000000D+00  0.0000000000000D+00  0.0000000000000D+00
   349  3.4800000000000D+00  0.0000000000000D+00  0.0000000000000D+00
   350  3.4900000000000D+00  0.0000000000000D+00  0.0000000000000D+00
   351  3.5000000000000D+00  0.0000000000000D+00  0.0000000000000D+00
   352  3.5100000000000D+00  0.0000000000000D+00  0.0000000000000D+00
   353  3.5200000000000D+00  0.0000000000000D+00  0.0000000000000D+00
   354  3.5300000000000D+00  0.0000000000000D+00  0.0000000000000D+00
   355  3.5400000000000D+00  0.0000000000000D+00  0.0000000000000D+00
   356  3.5500000000000D+00  0.0000000000000D+00  0.0000000000000D+00
   357  3.5600000000000D+00  0.0000000000000D+00  0.0000000000000D+00
   358  3.5700000000000D+00  0.0000000000000D+00  0.0000000000000D+00
   359  3.5800000000000D+00  0.0000000000000D+00  0.0000000000000D+00
   360  3.5900000000000D+00  0.0000000000000D+00  0.0000000000000D+00
   361  3.6000000000000D+00  0.0000000000000D+00  0.0000000000000D+00
   362  3.6100000000000D+00  0.0000000000000D+00  0.0000000000000D+00
   363  3.6200000000000D+00  0.0000000000000D+00  0.0000000000000D+00
   364  3.6300000000000D+00  0.0000000000000D+00  0.0000000000000D+00
   365  3.6400000000000D+00  0.0000000000000D+00  0.0000000000000D+00
   366  3.6500000000000D+00  0.0000000000000D+00  0.0000000000000D+00
   367  3.6600000000000D+00  0.0000000000000D+00  0.0000000000000D+00
   368  3.6700000000000D+00  0.0000000000000D+00  0.0000000000000D+00
   369  3.6800000000000D+00  0.0000000000000D+00  0.0000000000000D+00
   370  3.6900000000000D+00  0.0000000000000D+00  0.0000000000000D+00
   371  3.7000000000000D+00  0.0000000000000D+00  0.0000000000000D+00
   372  3.7100000000000D+00  0.0000000000000D+00  0.0000000000000D+00
   373  3.7200000000000D+00  0.0000000000000D+00  0.0000000000000D+00
   374  3.7300000000000D+00  0.0000000000000D+00  0.0000000000000D+00
   375  3.7400000000000D+00  0.0000000000000D+00  0.0000000000000D+00
   376  3.7500000000000D+00  0.0000000000000D+00  0.0000000000000D+00
   377  3.7600000000000D+00  0.0000000000000D+00  0.0000000000000D+00
   378  3.7700000000000D+00  0.0000000000000D+00  0.0000000000000D+00
   379  3.7800000000000D+00  0.0000000000000D+00  0.0000000000000D+00
   380  3.7900000000000D+00  0.0000000000000D+00  0.0000000000000D+00
   381  3.8000000000000D+00  0.0000000000000D+00  0.0000000000000D+00
   382  3.8100000000000D+00  0.0000000000000D+00  0.0000000000000D+00
   383  3.8200000000000D+00  0.0000000000000D+00  0.0000000000000D+00
   384  3.8300000000000D+00  0.0000000000000D+00  0.0000000000000D+00
   385  3.8400000000000D+00  0.0000000000000D+00  0.0000000000000D+00
   386  3.8500000000000D+00  0.0000000000000D+00  0.0000000000000D+00
   387  3.8600000000000D+00  0.0000000000000D+00  0.0000000000000D+00
   388  3.8700000000000D+00  0.0000000000000D+00  0.0000000000000D+00
   389  3.8800000000000D+00  0.0000000000000D+00  0.0000000000000D+00
   390  3.8900000000000D+00  0.0000000000000D+00  0.0000000000000D+00
   391  3.9000000000000D+00  0.0000000000000D+00  0.0000000000000D+00
   392  3.9100000000000D+00  0.0000000000000D+00  0.0000000000000D+00
   393  3.9200000000000D+00  0.0000000000000D+00  0.0000000000000D+00
   394  3.9300000000000D+00  0.0000000000000D+00  0.0000000000000D+00
   395  3.9400000000000D+00  0.0000000000000D+00  0.0000000000000D+00
   396  3.9500000000000D+00  0.0000000000000D+00  0.0000000000000D+00
   397  3.9600000000000D+00  0.0000000000000D+00  0.0000000000000D+00
   398  3.9700000000000D+00  0.0000000000000D+00  0.0000000000000D+00
   399  3.9800000000000D+00  0.0000000000000D+00  0.0000000000000D+00
   400  3.9900000000000D+00  0.0000000000000D+00  0.0000000000000D+00
   401  4.0000000000000D+00  0.0000000000000D+00  0.0000000000000D+00
   402  4.0100000000000D+00  0.0000000000000D+00  0.0000000000000D+00
   403  4.0200000000000D+00  0.0000000000000D+00  0.0000000000000D+00
   404  4.0300000000000D+00  0.0000000000000D+00  0.0000000000000D+00
   405  4.0400000000000D+00  0.0000000000000D+00  0.0000000000000D+00
   406  4.0500000000000D+00  0.0000000000000D+00  0.0000000000000D+00
   407  4.0600000000000D+00  0.0000000000000D+00  0.0000000000000D+00
   408  4.0700000000000D+00  0.0000000000000D+00  0.0000000000000D+00
   409  4.0800000000000D+00  0.0000000000000D+00  0.0000000000000D+00
   410  4.0900000000000D+00  0.0000000000000D+00  0.0000000000000D+00
   411  4.1000000000000D+00  0.0000000000000D+00  0.0000000000000D+00
   412  4.1100000000000D+00  0.0000000000000D+00  0.0000000000000D+00
   413  4.1200000000000D+00  0.0000000000000D+00  0.0000000000000D+00
   414  4.1300000000000D+00  0.0000000000000D+00  0.0000000000000D+00
   415  4.1400000000000D+00  0.0000000000000D+00  0.0000000000000D+00
   416  4.1500000000000D+00  0.0000000000000D+00  0.0000000000000D+00
   417  4.1600000000000D+00  0.0000000000000D+00  0.0000000000000D+00
   418  4.1700000000000D+00  0.0000000000000D+00  0.0000000000000D+00
   419  4.1800000000000D+00  0.0000000000000D+00  0.0000000000000D+00
   420  4.1900000000000D+00  0.0000000000000D+00  0.0000000000000D+00
   421  4.2000000000000D+00  0.0000000000000D+00  0.0000000000000D+00
   422  4.2100000000000D+00  0.0000000000000D+00  0.0000000000000D+00