Zn    ONCVPSP-3.3.1  r_core=   1.96594   2.08676   2.08676
     30.0000     20.0000      210904    zatom,zion,pspd
     8      11   2     4   600     0    pspcod,pspxc,lmax,lloc,mmax,r2well
  5.99000000  0.00000000  0.00000000    rchrg fchrg qchrg
     2     2     2     0    nproj
     3     1           extension_switch
     3     3     0    nprojso
   0                        -3.8282743734888D+00 -2.9580478552704D-01
     1  0.0000000000000D+00 -7.4806272287731D-12 -1.9037704745983D-10
     2  1.0000000000000D-02  4.2328711272675D-02 -6.4900794706039D-03
     3  2.0000000000000D-02  8.4612079006412D-02 -1.3069337296735D-02
     4  3.0000000000000D-02  1.2680483718732D-01 -1.9826028059048D-02
     5  4.0000000000000D-02  1.6886187457552D-01 -2.6846565689358D-02
     6  5.0000000000000D-02  2.1073831140372D-01 -3.4214620350046D-02
     7  6.0000000000000D-02  2.5238957525513D-01 -4.2010235822846D-02
     8  7.0000000000000D-02  2.9377147585590D-01 -5.0308974019065D-02
     9  8.0000000000000D-02  3.3484027852482D-01 -5.9181093032968D-02
    10  9.0000000000000D-02  3.7555277603237D-01 -6.8690764924615D-02
    11  1.0000000000000D-01  4.1586635863187D-01 -7.8895339139523D-02
    12  1.1000000000000D-01  4.5573908203827D-01 -8.9844657152014D-02
    13  1.2000000000000D-01  4.9512973314397D-01 -1.0158042355931D-01
    14  1.3000000000000D-01  5.3399789327630D-01 -1.1413563845672D-01
    15  1.4000000000000D-01  5.7230399881818D-01 -1.2753409549362D-01
    16  1.5000000000000D-01  6.1000939903087D-01 -1.4178994954776D-01
    17  1.6000000000000D-01  6.4707641093665D-01 -1.5690735746578D-01
    18  1.7000000000000D-01  6.8346837113846D-01 -1.7288019480346D-01
    19  1.8000000000000D-01  7.1914968447396D-01 -1.8969185096354D-01
    20  1.9000000000000D-01  7.5408586942163D-01 -2.0731510457667D-01
    21  2.0000000000000D-01  7.8824360019795D-01 -2.2571208040466D-01
    22  2.1000000000000D-01  8.2159074550502D-01 -2.4483428846975D-01
    23  2.2000000000000D-01  8.5409640390976D-01 -2.6462274553234D-01
    24  2.3000000000000D-01  8.8573093585571D-01 -2.8500817845707D-01
    25  2.4000000000000D-01  9.1646599232961D-01 -3.0591130842701D-01
    26  2.5000000000000D-01  9.4627454022411D-01 -3.2724321439222D-01
    27  2.6000000000000D-01  9.7513088445734D-01 -3.4890577357601D-01
    28  2.7000000000000D-01  1.0030106869283D+00 -3.7079217631388D-01
    29  2.8000000000000D-01  1.0298909824037D+00 -3.9278751196979D-01
    30  2.9000000000000D-01  1.0557501914488D+00 -4.1476942216672D-01
    31  3.0000000000000D-01  1.0805681305283D+00 -4.3660881708544D-01
    32  3.1000000000000D-01  1.1043260194171D+00 -4.5817065013231D-01
    33  3.2000000000000D-01  1.1270064860725D+00 -4.7931474585501D-01
    34  3.3000000000000D-01  1.1485935691304D+00 -4.9989667559917D-01
    35  3.4000000000000D-01  1.1690727181927D+00 -5.1976867504967D-01
    36  3.5000000000000D-01  1.1884307920852D+00 -5.3878059749247D-01
    37  3.6000000000000D-01  1.2066560552650D+00 -5.5678089636654D-01
    38  3.7000000000000D-01  1.2237381725620D+00 -5.7361763045386D-01
    39  3.8000000000000D-01  1.2396682024388D+00 -5.8913948487953D-01
    40  3.9000000000000D-01  1.2544385889532D+00 -6.0319680096546D-01
    41  4.0000000000000D-01  1.2680431526034D+00 -6.1564260789999D-01
    42  4.1000000000000D-01  1.2804770802321D+00 -6.2633364915444D-01
    43  4.2000000000000D-01  1.2917369141597D+00 -6.3513139659359D-01
    44  4.3000000000000D-01  1.3018205407063D+00 -6.4190304529341D-01
    45  4.4000000000000D-01  1.3107271782543D+00 -6.4652248219296D-01
    46  4.5000000000000D-01  1.3184573649924D+00 -6.4887122186915D-01
    47  4.6000000000000D-01  1.3250129464649D+00 -6.4883930293124D-01
    48  4.7000000000000D-01  1.3303970630406D+00 -6.4632613878488D-01
    49  4.8000000000000D-01  1.3346141373977D+00 -6.4124131681256D-01
    50  4.9000000000000D-01  1.3376698621032D+00 -6.3350534035456D-01
    51  5.0000000000000D-01  1.3395711873515D+00 -6.2305030825188D-01
    52  5.1000000000000D-01  1.3403263089041D+00 -6.0982052712520D-01
    53  5.2000000000000D-01  1.3399446562580D+00 -5.9377305201109D-01
    54  5.3000000000000D-01  1.3384368810478D+00 -5.7487815145319D-01
    55  5.4000000000000D-01  1.3358148456683D+00 -5.5311969365015D-01
    56  5.5000000000000D-01  1.3320916120868D+00 -5.2849545079035D-01
    57  5.6000000000000D-01  1.3272814307914D+00 -5.0101731924920D-01
    58  5.7000000000000D-01  1.3213997298078D+00 -4.7071145389036D-01
    59  5.8000000000000D-01  1.3144631036941D+00 -4.3761831528576D-01
    60  5.9000000000000D-01  1.3064893024093D+00 -4.0179262925424D-01
    61  6.0000000000000D-01  1.2974972199334D+00 -3.6330325870515D-01
    62  6.1000000000000D-01  1.2875068825028D+00 -3.2223298836220D-01
    63  6.2000000000000D-01  1.2765394363083D+00 -2.7867822352360D-01
    64  6.3000000000000D-01  1.2646171344959D+00 -2.3274860459301D-01
    65  6.4000000000000D-01  1.2517633232924D+00 -1.8456653967465D-01
    66  6.5000000000000D-01  1.2380024270770D+00 -1.3426665807535D-01
    67  6.6000000000000D-01  1.2233599322072D+00 -8.1995188081827D-02
    68  6.7000000000000D-01  1.2078623694038D+00 -2.7909262882938D-02
    69  6.8000000000000D-01  1.1915372944998D+00  2.7823841015665D-02
    70  6.9000000000000D-01  1.1744132673523D+00  8.5027528093463D-02
    71  7.0000000000000D-01  1.1565198287230D+00  1.4351676563005D-01
    72  7.1000000000000D-01  1.1378874749331D+00  2.0309901745597D-01
    73  7.2000000000000D-01  1.1185476301068D+00  2.6357522372415D-01
    74  7.3000000000000D-01  1.0985326158249D+00  3.2474082049279D-01
    75  7.4000000000000D-01  1.0778756180217D+00  3.8638679265891D-01
    76  7.5000000000000D-01  1.0566106509697D+00  4.4830075357424D-01
    77  7.6000000000000D-01  1.0347725182149D+00  5.1026804451542D-01
    78  7.7000000000000D-01  1.0123967703385D+00  5.7207284706633D-01
    79  7.8000000000000D-01  9.8951965944434D-01  6.3349930140560D-01
    80  7.9000000000000D-01  9.6617809029013D-01  6.9433262347498D-01
    81  8.0000000000000D-01  9.4240956800327D-01  7.5436021403543D-01
    82  8.1000000000000D-01  9.1825214234827D-01  8.1337275269730D-01
    83  8.2000000000000D-01  8.9374434853726D-01  8.7116527013618D-01
    84  8.3000000000000D-01  8.6892514460253D-01  9.2753819187969D-01
    85  8.4000000000000D-01  8.4383384537852D-01  9.8229834726641D-01
    86  8.5000000000000D-01  8.1851005316924D-01  1.0352599374390D+00
    87  8.6000000000000D-01  7.9299358520684D-01  1.0862454565341D+00
    88  8.7000000000000D-01  7.6732439803669D-01  1.1350865605728D+00
    89  8.8000000000000D-01  7.4154250899464D-01  1.1816248789286D+00
    90  8.9000000000000D-01  7.1568791497143D-01  1.2257127636632D+00
    91  9.0000000000000D-01  6.8980050868906D-01  1.2672139724561D+00
    92  9.1000000000000D-01  6.6391999274237D-01  1.3060042813225D+00
    93  9.2000000000000D-01  6.3808579168699D-01  1.3419720238039D+00
    94  9.3000000000000D-01  6.1233696248136D-01  1.3750185538251D+00
    95  9.4000000000000D-01  5.8671210361596D-01  1.4050586299373D+00
    96  9.5000000000000D-01  5.6124926328618D-01  1.4320207192055D+00
    97  9.6000000000000D-01  5.3598584698705D-01  1.4558472195442D+00
    98  9.7000000000000D-01  5.1095852492776D-01  1.4764945998609D+00
    99  9.8000000000000D-01  4.8620313968085D-01  1.4939334579075D+00
   100  9.9000000000000D-01  4.6175461449593D-01  1.5081484962989D+00
   101  1.0000000000000D+00  4.3764686271985D-01  1.5191384176939D+00
   102  1.0100000000000D+00  4.1391269877429D-01  1.5269157406602D+00
   103  1.0200000000000D+00  3.9058375114817D-01  1.5315065382626D+00
   104  1.0300000000000D+00  3.6769037786535D-01  1.5329501019050D+00
   105  1.0400000000000D+00  3.4526158488774D-01  1.5312985334439D+00
   106  1.0500000000000D+00  3.2332494791141D-01  1.5266162690010D+00
   107  1.0600000000000D+00  3.0190653800582D-01  1.5189795383754D+00
   108  1.0700000000000D+00  2.8103085153683D-01  1.5084757643013D+00
   109  1.0800000000000D+00  2.6072074480103D-01  1.4952029061687D+00
   110  1.0900000000000D+00  2.4099737378063D-01  1.4792687531520D+00
   111  1.1000000000000D+00  2.2188013941249D-01  1.4607901719329D+00
   112  1.1100000000000D+00  2.0338663873690D-01  1.4398923144992D+00
   113  1.1200000000000D+00  1.8553262226956D-01  1.4167077916610D+00
   114  1.1300000000000D+00  1.6833195790753D-01  1.3913758180969D+00
   115  1.1400000000000D+00  1.5179660165364D-01  1.3640413348468D+00
   116  1.1500000000000D+00  1.3593657540524D-01  1.3348541152587D+00
   117  1.1600000000000D+00  1.2075995201823D-01  1.3039678604091D+00
   118  1.1700000000000D+00  1.0627284781412D-01  1.2715392899913D+00
   119  1.1800000000000D+00  9.2479422670111D-02  1.2377272346392D+00
   120  1.1900000000000D+00  7.9381887775155D-02  1.2026917355315D+00
   121  1.2000000000000D+00  6.6980521097869D-02  1.1665931569788D+00
   122  1.2100000000000D+00  5.5273690566191D-02  1.1295913175068D+00
   123  1.2200000000000D+00  4.4257884923247D-02  1.0918446448110D+00
   124  1.2300000000000D+00  3.3927752160513D-02  1.0535093596027D+00
   125  1.2400000000000D+00  2.4276145386764D-02  1.0147386930618D+00
   126  1.2500000000000D+00  1.5294175973708D-02  9.7568214253888D-01
   127  1.2600000000000D+00  6.9712737318030D-03  9.3648476949937D-01
   128  1.2700000000000D+00 -7.0474615593570D-04  8.9728654341407D-01
   129  1.2800000000000D+00 -7.7476097334907D-03  8.5822173519515D-01
   130  1.2900000000000D+00 -1.4172504778316D-02  8.1941836299357D-01
   131  1.3000000000000D+00 -1.9995995613614D-02  7.8099769280022D-01
   132  1.3100000000000D+00 -2.5235932630832D-02  7.4307379632343D-01
   133  1.3200000000000D+00 -2.9911357014104D-02  7.0575316754606D-01
   134  1.3300000000000D+00 -3.4042401161862D-02  6.6913439915017D-01
   135  1.3400000000000D+00 -3.7650185310804D-02  6.3330792003620D-01
   136  1.3500000000000D+00 -4.0756710944211D-02  5.9835579381618D-01
   137  1.3600000000000D+00 -4.3384751541501D-02  5.6435157843865D-01
   138  1.3700000000000D+00 -4.5557741263516D-02  5.3136024664534D-01
   139  1.3800000000000D+00 -4.7299662193502D-02  4.9943816587058D-01
   140  1.3900000000000D+00 -4.8634930737503D-02  4.6863313683652D-01
   141  1.4000000000000D+00 -4.9588283825490D-02  4.3898448885960D-01
   142  1.4100000000000D+00 -5.0184665526681D-02  4.1052322974637D-01
   143  1.4200000000000D+00 -5.0449114723943D-02  3.8327224841074D-01
   144  1.4300000000000D+00 -5.0406654448970D-02  3.5724656688658D-01
   145  1.4400000000000D+00 -5.0082183504337D-02  3.3245363938203D-01
   146  1.4500000000000D+00 -4.9500370971394D-02  3.0889369484858D-01
   147  1.4600000000000D+00 -4.8685554151063D-02  2.8656011969084D-01
   148  1.4700000000000D+00 -4.7661640562487D-02  2.6543987724957D-01
   149  1.4800000000000D+00 -4.6452014428236D-02  2.4551395993977D-01
   150  1.4900000000000D+00 -4.5079448263694D-02  2.2675787057229D-01
   151  1.5000000000000D+00 -4.3566019933382D-02  2.0914212857324D-01
   152  1.5100000000000D+00 -4.1933035666443D-02  1.9263279734442D-01
   153  1.5200000000000D+00 -4.0200959424125D-02  1.7719202853208D-01
   154  1.5300000000000D+00 -3.8389348888802D-02  1.6277861944636D-01
   155  1.5400000000000D+00 -3.6516798542824D-02  1.4934857927023D-01
   156  1.5500000000000D+00 -3.4600889841364D-02  1.3685570078615D-01
   157  1.5600000000000D+00 -3.2658149012251D-02  1.2525213297446D-01
   158  1.5700000000000D+00 -3.0704012279902D-02  1.1448895187600D-01
   159  1.5800000000000D+00 -2.8752798973117D-02  1.0451672511290D-01
   160  1.5900000000000D+00 -2.6817692255787D-02  9.5286067833973D-02
   161  1.6000000000000D+00 -2.4910727743628D-02  8.6748186033742D-02
   162  1.6100000000000D+00 -2.3042789756819D-02  7.8855405117728D-02
   163  1.6200000000000D+00 -2.1223615243712D-02  7.1561680563455D-02
   164  1.6300000000000D+00 -1.9461805257206D-02  6.4823094221683D-02
   165  1.6400000000000D+00 -1.7764843117203D-02  5.8598299367059D-02
   166  1.6500000000000D+00 -1.6139121487994D-02  5.2849035787448D-02
   167  1.6600000000000D+00 -1.4589971166524D-02  4.7540374232877D-02
   168  1.6700000000000D+00 -1.3121701001063D-02  4.2641159080256D-02
   169  1.6800000000000D+00 -1.1737655768360D-02  3.8125049068160D-02
   170  1.6900000000000D+00 -1.0440245357452D-02  3.3969781383745D-02
   171  1.7000000000000D+00 -9.2309669064304D-03  3.0155765742712D-02
   172  1.7100000000000D+00 -8.1104376965660D-03  2.6665071762283D-02
   173  1.7200000000000D+00 -7.0784193213020D-03  2.3479788873079D-02
   174  1.7300000000000D+00 -6.1338738939775D-03  2.0581795162021D-02
   175  1.7400000000000D+00 -5.2750416348419D-03  1.7953462907133D-02
   176  1.7500000000000D+00 -4.4995088416228D-03  1.5577695892442D-02
   177  1.7600000000000D+00 -3.8042774008559D-03  1.3437903932696D-02
   178  1.7700000000000D+00 -3.1858388023448D-03  1.1518121470977D-02
   179  1.7800000000000D+00 -2.6402475640427D-03  9.8030263997139D-03
   180  1.7900000000000D+00 -2.1631954639888D-03  8.2779703421502D-03
   181  1.8000000000000D+00 -1.7500852998318D-03  6.9289858104257D-03
   182  1.8100000000000D+00 -1.3961037580094D-03  5.7427790312878D-03
   183  1.8200000000000D+00 -1.0962926369975D-03  4.7067093091979D-03
   184  1.8300000000000D+00 -8.4561818575301D-04  3.8087573940289D-03
   185  1.8400000000000D+00 -6.3903749142641D-04  3.0374844529738D-03
   186  1.8500000000000D+00 -4.7156215706634D-04  2.3819830223858D-03
   187  1.8600000000000D+00 -3.3831782728022D-04  1.8318229277607D-03
   188  1.8700000000000D+00 -2.3460017416709D-04  1.3769920613636D-03
   189  1.8800000000000D+00 -1.5592590295226D-04  1.0078359026106D-03
   190  1.8900000000000D+00 -9.8079277710762D-05  7.1499515154060D-04
   191  1.9000000000000D+00 -5.7148478764726D-05  4.8936476863253D-04
   192  1.9100000000000D+00 -2.9572932601153D-05  3.2198534799897D-04
   193  1.9200000000000D+00 -1.2191491022590D-05  2.0389373039703D-04
   194  1.9300000000000D+00 -2.2723944797598D-06  1.2581238496406D-04
   195  1.9400000000000D+00  2.7986370596549D-06  8.0778054959479D-05
   196  1.9500000000000D+00  5.1615459686880D-06  6.2026675703420D-05
   197  1.9600000000000D+00  5.6430169103309D-06  5.4451342723646D-05
   198  1.9700000000000D+00  4.3810521410809D-06  4.1609246704093D-05
   199  1.9800000000000D+00  1.9918767312642D-06  1.9325516438652D-05
   200  1.9900000000000D+00 -5.1919429680434D-08 -4.8002778886893D-07
   201  2.0000000000000D+00 -5.4067261740762D-07 -5.0212164978753D-06
   202  2.0100000000000D+00 -1.8774933777751D-07 -1.7542548215807D-06
   203  2.0200000000000D+00  1.0653340643361D-07  9.2291463108656D-07
   204  2.0300000000000D+00  9.9623637234130D-08  8.5855390077495D-07
   205  2.0400000000000D+00 -5.2108490671161D-09 -4.9552371013761D-08
   206  2.0500000000000D+00 -1.4548838561300D-08 -1.3835162694663D-07
   207  2.0600000000000D+00 -3.5337566480179D-09 -3.3604124441056D-08
   208  2.0700000000000D+00  0.0000000000000D+00  0.0000000000000D+00
   209  2.0800000000000D+00  0.0000000000000D+00  0.0000000000000D+00
   210  2.0900000000000D+00  0.0000000000000D+00  0.0000000000000D+00
   211  2.1000000000000D+00  0.0000000000000D+00  0.0000000000000D+00
   212  2.1100000000000D+00  0.0000000000000D+00  0.0000000000000D+00
   213  2.1200000000000D+00  0.0000000000000D+00  0.0000000000000D+00
   214  2.1300000000000D+00  0.0000000000000D+00  0.0000000000000D+00
   215  2.1400000000000D+00  0.0000000000000D+00  0.0000000000000D+00
   216  2.1500000000000D+00  0.0000000000000D+00  0.0000000000000D+00
   217  2.1600000000000D+00  0.0000000000000D+00  0.0000000000000D+00
   218  2.1700000000000D+00  0.0000000000000D+00  0.0000000000000D+00
   219  2.1800000000000D+00  0.0000000000000D+00  0.0000000000000D+00
   220  2.1900000000000D+00  0.0000000000000D+00  0.0000000000000D+00
   221  2.2000000000000D+00  0.0000000000000D+00  0.0000000000000D+00
   222  2.2100000000000D+00  0.0000000000000D+00  0.0000000000000D+00
   223  2.2200000000000D+00  0.0000000000000D+00  0.0000000000000D+00
   224  2.2300000000000D+00  0.0000000000000D+00  0.0000000000000D+00
   225  2.2400000000000D+00  0.0000000000000D+00  0.0000000000000D+00
   226  2.2500000000000D+00  0.0000000000000D+00  0.0000000000000D+00
   227  2.2600000000000D+00  0.0000000000000D+00  0.0000000000000D+00
   228  2.2700000000000D+00  0.0000000000000D+00  0.0000000000000D+00
   229  2.2800000000000D+00  0.0000000000000D+00  0.0000000000000D+00
   230  2.2900000000000D+00  0.0000000000000D+00  0.0000000000000D+00
   231  2.3000000000000D+00  0.0000000000000D+00  0.0000000000000D+00
   232  2.3100000000000D+00  0.0000000000000D+00  0.0000000000000D+00
   233  2.3200000000000D+00  0.0000000000000D+00  0.0000000000000D+00
   234  2.3300000000000D+00  0.0000000000000D+00  0.0000000000000D+00
   235  2.3400000000000D+00  0.0000000000000D+00  0.0000000000000D+00
   236  2.3500000000000D+00  0.0000000000000D+00  0.0000000000000D+00
   237  2.3600000000000D+00  0.0000000000000D+00  0.0000000000000D+00
   238  2.3700000000000D+00  0.0000000000000D+00  0.0000000000000D+00
   239  2.3800000000000D+00  0.0000000000000D+00  0.0000000000000D+00
   240  2.3900000000000D+00  0.0000000000000D+00  0.0000000000000D+00
   241  2.4000000000000D+00  0.0000000000000D+00  0.0000000000000D+00
   242  2.4100000000000D+00  0.0000000000000D+00  0.0000000000000D+00
   243  2.4200000000000D+00  0.0000000000000D+00  0.0000000000000D+00
   244  2.4300000000000D+00  0.0000000000000D+00  0.0000000000000D+00
   245  2.4400000000000D+00  0.0000000000000D+00  0.0000000000000D+00
   246  2.4500000000000D+00  0.0000000000000D+00  0.0000000000000D+00
   247  2.4600000000000D+00  0.0000000000000D+00  0.0000000000000D+00
   248  2.4700000000000D+00  0.0000000000000D+00  0.0000000000000D+00
   249  2.4800000000000D+00  0.0000000000000D+00  0.0000000000000D+00
   250  2.4900000000000D+00  0.0000000000000D+00  0.0000000000000D+00
   251  2.5000000000000D+00  0.0000000000000D+00  0.0000000000000D+00
   252  2.5100000000000D+00  0.0000000000000D+00  0.0000000000000D+00
   253  2.5200000000000D+00  0.0000000000000D+00  0.0000000000000D+00
   254  2.5300000000000D+00  0.0000000000000D+00  0.0000000000000D+00
   255  2.5400000000000D+00  0.0000000000000D+00  0.0000000000000D+00
   256  2.5500000000000D+00  0.0000000000000D+00  0.0000000000000D+00
   257  2.5600000000000D+00  0.0000000000000D+00  0.0000000000000D+00
   258  2.5700000000000D+00  0.0000000000000D+00  0.0000000000000D+00
   259  2.5800000000000D+00  0.0000000000000D+00  0.0000000000000D+00
   260  2.5900000000000D+00  0.0000000000000D+00  0.0000000000000D+00
   261  2.6000000000000D+00  0.0000000000000D+00  0.0000000000000D+00
   262  2.6100000000000D+00  0.0000000000000D+00  0.0000000000000D+00
   263  2.6200000000000D+00  0.0000000000000D+00  0.0000000000000D+00
   264  2.6300000000000D+00  0.0000000000000D+00  0.0000000000000D+00
   265  2.6400000000000D+00  0.0000000000000D+00  0.0000000000000D+00
   266  2.6500000000000D+00  0.0000000000000D+00  0.0000000000000D+00
   267  2.6600000000000D+00  0.0000000000000D+00  0.0000000000000D+00
   268  2.6700000000000D+00  0.0000000000000D+00  0.0000000000000D+00
   269  2.6800000000000D+00  0.0000000000000D+00  0.0000000000000D+00
   270  2.6900000000000D+00  0.0000000000000D+00  0.0000000000000D+00
   271  2.7000000000000D+00  0.0000000000000D+00  0.0000000000000D+00
   272  2.7100000000000D+00  0.0000000000000D+00  0.0000000000000D+00
   273  2.7200000000000D+00  0.0000000000000D+00  0.0000000000000D+00
   274  2.7300000000000D+00  0.0000000000000D+00  0.0000000000000D+00
   275  2.7400000000000D+00  0.0000000000000D+00  0.0000000000000D+00
   276  2.7500000000000D+00  0.0000000000000D+00  0.0000000000000D+00
   277  2.7600000000000D+00  0.0000000000000D+00  0.0000000000000D+00
   278  2.7700000000000D+00  0.0000000000000D+00  0.0000000000000D+00
   279  2.7800000000000D+00  0.0000000000000D+00  0.0000000000000D+00
   280  2.7900000000000D+00  0.0000000000000D+00  0.0000000000000D+00
   281  2.8000000000000D+00  0.0000000000000D+00  0.0000000000000D+00
   282  2.8100000000000D+00  0.0000000000000D+00  0.0000000000000D+00
   283  2.8200000000000D+00  0.0000000000000D+00  0.0000000000000D+00
   284  2.8300000000000D+00  0.0000000000000D+00  0.0000000000000D+00
   285  2.8400000000000D+00  0.0000000000000D+00  0.0000000000000D+00
   286  2.8500000000000D+00  0.0000000000000D+00  0.0000000000000D+00
   287  2.8600000000000D+00  0.0000000000000D+00  0.0000000000000D+00
   288  2.8700000000000D+00  0.0000000000000D+00  0.0000000000000D+00
   289  2.8800000000000D+00  0.0000000000000D+00  0.0000000000000D+00
   290  2.8900000000000D+00  0.0000000000000D+00  0.0000000000000D+00
   291  2.9000000000000D+00  0.0000000000000D+00  0.0000000000000D+00
   292  2.9100000000000D+00  0.0000000000000D+00  0.0000000000000D+00
   293  2.9200000000000D+00  0.0000000000000D+00  0.0000000000000D+00
   294  2.9300000000000D+00  0.0000000000000D+00  0.0000000000000D+00
   295  2.9400000000000D+00  0.0000000000000D+00  0.0000000000000D+00
   296  2.9500000000000D+00  0.0000000000000D+00  0.0000000000000D+00
   297  2.9600000000000D+00  0.0000000000000D+00  0.0000000000000D+00
   298  2.9700000000000D+00  0.0000000000000D+00  0.0000000000000D+00
   299  2.9800000000000D+00  0.0000000000000D+00  0.0000000000000D+00
   300  2.9900000000000D+00  0.0000000000000D+00  0.0000000000000D+00
   301  3.0000000000000D+00  0.0000000000000D+00  0.0000000000000D+00
   302  3.0100000000000D+00  0.0000000000000D+00  0.0000000000000D+00
   303  3.0200000000000D+00  0.0000000000000D+00  0.0000000000000D+00
   304  3.0300000000000D+00  0.0000000000000D+00  0.0000000000000D+00
   305  3.0400000000000D+00  0.0000000000000D+00  0.0000000000000D+00
   306  3.0500000000000D+00  0.0000000000000D+00  0.0000000000000D+00
   307  3.0600000000000D+00  0.0000000000000D+00  0.0000000000000D+00
   308  3.0700000000000D+00  0.0000000000000D+00  0.0000000000000D+00
   309  3.0800000000000D+00  0.0000000000000D+00  0.0000000000000D+00
   310  3.0900000000000D+00  0.0000000000000D+00  0.0000000000000D+00
   311  3.1000000000000D+00  0.0000000000000D+00  0.0000000000000D+00
   312  3.1100000000000D+00  0.0000000000000D+00  0.0000000000000D+00
   313  3.1200000000000D+00  0.0000000000000D+00  0.0000000000000D+00
   314  3.1300000000000D+00  0.0000000000000D+00  0.0000000000000D+00
   315  3.1400000000000D+00  0.0000000000000D+00  0.0000000000000D+00
   316  3.1500000000000D+00  0.0000000000000D+00  0.0000000000000D+00
   317  3.1600000000000D+00  0.0000000000000D+00  0.0000000000000D+00
   318  3.1700000000000D+00  0.0000000000000D+00  0.0000000000000D+00
   319  3.1800000000000D+00  0.0000000000000D+00  0.0000000000000D+00
   320  3.1900000000000D+00  0.0000000000000D+00  0.0000000000000D+00
   321  3.2000000000000D+00  0.0000000000000D+00  0.0000000000000D+00
   322  3.2100000000000D+00  0.0000000000000D+00  0.0000000000000D+00
   323  3.2200000000000D+00  0.0000000000000D+00  0.0000000000000D+00
   324  3.2300000000000D+00  0.0000000000000D+00  0.0000000000000D+00
   325  3.2400000000000D+00  0.0000000000000D+00  0.0000000000000D+00
   326  3.2500000000000D+00  0.0000000000000D+00  0.0000000000000D+00
   327  3.2600000000000D+00  0.0000000000000D+00  0.0000000000000D+00
   328  3.2700000000000D+00  0.0000000000000D+00  0.0000000000000D+00
   329  3.2800000000000D+00  0.0000000000000D+00  0.0000000000000D+00
   330  3.2900000000000D+00  0.0000000000000D+00  0.0000000000000D+00
   331  3.3000000000000D+00  0.0000000000000D+00  0.0000000000000D+00
   332  3.3100000000000D+00  0.0000000000000D+00  0.0000000000000D+00
   333  3.3200000000000D+00  0.0000000000000D+00  0.0000000000000D+00
   334  3.3300000000000D+00  0.0000000000000D+00  0.0000000000000D+00
   335  3.3400000000000D+00  0.0000000000000D+00  0.0000000000000D+00
   336  3.3500000000000D+00  0.0000000000000D+00  0.0000000000000D+00
   337  3.3600000000000D+00  0.0000000000000D+00  0.0000000000000D+00
   338  3.3700000000000D+00  0.0000000000000D+00  0.0000000000000D+00
   339  3.3800000000000D+00  0.0000000000000D+00  0.0000000000000D+00
   340  3.3900000000000D+00  0.0000000000000D+00  0.0000000000000D+00
   341  3.4000000000000D+00  0.0000000000000D+00  0.0000000000000D+00
   342  3.4100000000000D+00  0.0000000000000D+00  0.0000000000000D+00
   343  3.4200000000000D+00  0.0000000000000D+00  0.0000000000000D+00
   344  3.4300000000000D+00  0.0000000000000D+00  0.0000000000000D+00
   345  3.4400000000000D+00  0.0000000000000D+00  0.0000000000000D+00
   346  3.4500000000000D+00  0.0000000000000D+00  0.0000000000000D+00
   347  3.4600000000000D+00  0.0000000000000D+00  0.0000000000000D+00
   348  3.4700000000000D+00  0.0000000000000D+00  0.0000000000000D+00
   349  3.4800000000000D+00  0.0000000000000D+00  0.0000000000000D+00
   350  3.4900000000000D+00  0.0000000000000D+00  0.0000000000000D+00
   351  3.5000000000000D+00  0.0000000000000D+00  0.0000000000000D+00
   352  3.5100000000000D+00  0.0000000000000D+00  0.0000000000000D+00
   353  3.5200000000000D+00  0.0000000000000D+00  0.0000000000000D+00
   354  3.5300000000000D+00  0.0000000000000D+00  0.0000000000000D+00
   355  3.5400000000000D+00  0.0000000000000D+00  0.0000000000000D+00
   356  3.5500000000000D+00  0.0000000000000D+00  0.0000000000000D+00
   357  3.5600000000000D+00  0.0000000000000D+00  0.0000000000000D+00
   358  3.5700000000000D+00  0.0000000000000D+00  0.0000000000000D+00
   359  3.5800000000000D+00  0.0000000000000D+00  0.0000000000000D+00
   360  3.5900000000000D+00  0.0000000000000D+00  0.0000000000000D+00
   361  3.6000000000000D+00  0.0000000000000D+00  0.0000000000000D+00
   362  3.6100000000000D+00  0.0000000000000D+00  0.0000000000000D+00
   363  3.6200000000000D+00  0.0000000000000D+00  0.0000000000000D+00
   364  3.6300000000000D+00  0.0000000000000D+00  0.0000000000000D+00
   365  3.6400000000000D+00  0.0000000000000D+00  0.0000000000000D+00
   366  3.6500000000000D+00  0.0000000000000D+00  0.0000000000000D+00
   367  3.6600000000000D+00  0.0000000000000D+00  0.0000000000000D+00
   368  3.6700000000000D+00  0.0000000000000D+00  0.0000000000000D+00
   369  3.6800000000000D+00  0.0000000000000D+00  0.0000000000000D+00
   370  3.6900000000000D+00  0.0000000000000D+00  0.0000000000000D+00
   371  3.7000000000000D+00  0.0000000000000D+00  0.0000000000000D+00
   372  3.7100000000000D+00  0.0000000000000D+00  0.0000000000000D+00
   373  3.7200000000000D+00  0.0000000000000D+00  0.0000000000000D+00
   374  3.7300000000000D+00  0.0000000000000D+00  0.0000000000000D+00
   375  3.7400000000000D+00  0.0000000000000D+00  0.0000000000000D+00
   376  3.7500000000000D+00  0.0000000000000D+00  0.0000000000000D+00
   377  3.7600000000000D+00  0.0000000000000D+00  0.0000000000000D+00
   378  3.7700000000000D+00  0.0000000000000D+00  0.0000000000000D+00
   379  3.7800000000000D+00  0.0000000000000D+00  0.0000000000000D+00
   380  3.7900000000000D+00  0.0000000000000D+00  0.0000000000000D+00
   381  3.8000000000000D+00  0.0000000000000D+00  0.0000000000000D+00
   382  3.8100000000000D+00  0.0000000000000D+00  0.0000000000000D+00
   383  3.8200000000000D+00  0.0000000000000D+00  0.0000000000000D+00
   384  3.8300000000000D+00  0.0000000000000D+00  0.0000000000000D+00
   385  3.8400000000000D+00  0.0000000000000D+00  0.0000000000000D+00
   386  3.8500000000000D+00  0.0000000000000D+00  0.0000000000000D+00
   387  3.8600000000000D+00  0.0000000000000D+00  0.0000000000000D+00
   388  3.8700000000000D+00  0.0000000000000D+00  0.0000000000000D+00
   389  3.8800000000000D+00  0.0000000000000D+00  0.0000000000000D+00
   390  3.8900000000000D+00  0.0000000000000D+00  0.0000000000000D+00
   391  3.9000000000000D+00  0.0000000000000D+00  0.0000000000000D+00
   392  3.9100000000000D+00  0.0000000000000D+00  0.0000000000000D+00
   393  3.9200000000000D+00  0.0000000000000D+00  0.0000000000000D+00
   394  3.9300000000000D+00  0.0000000000000D+00  0.0000000000000D+00
   395  3.9400000000000D+00  0.0000000000000D+00  0.0000000000000D+00
   396  3.9500000000000D+00  0.0000000000000D+00  0.0000000000000D+00
   397  3.9600000000000D+00  0.0000000000000D+00  0.0000000000000D+00
   398  3.9700000000000D+00  0.0000000000000D+00  0.0000000000000D+00
   399  3.9800000000000D+00  0.0000000000000D+00  0.0000000000000D+00
   400  3.9900000000000D+00  0.0000000000000D+00  0.0000000000000D+00
   401  4.0000000000000D+00  0.0000000000000D+00  0.0000000000000D+00
   402  4.0100000000000D+00  0.0000000000000D+00  0.0000000000000D+00
   403  4.0200000000000D+00  0.0000000000000D+00  0.0000000000000D+00
   404  4.0300000000000D+00  0.0000000000000D+00  0.0000000000000D+00
   405  4.0400000000000D+00  0.0000000000000D+00  0.0000000000000D+00
   406  4.0500000000000D+00  0.0000000000000D+00  0.0000000000000D+00
   407  4.0600000000000D+00  0.0000000000000D+00  0.0000000000000D+00
   408  4.0700000000000D+00  0.0000000000000D+00  0.0000000000000D+00
   409  4.0800000000000D+00  0.0000000000000D+00  0.0000000000000D+00
   410  4.0900000000000D+00  0.0000000000000D+00  0.0000000000000D+00
   411  4.1000000000000D+00  0.0000000000000D+00  0.0000000000000D+00
   412  4.1100000000000D+00  0.0000000000000D+00  0.0000000000000D+00
   413  4.1200000000000D+00  0.0000000000000D+00  0.0000000000000D+00
   414  4.1300000000000D+00  0.0000000000000D+00  0.0000000000000D+00
   415  4.1400000000000D+00  0.0000000000000D+00  0.0000000000000D+00
   416  4.1500000000000D+00  0.0000000000000D+00  0.0000000000000D+00
   417  4.1600000000000D+00  0.0000000000000D+00  0.0000000000000D+00
   418  4.1700000000000D+00  0.0000000000000D+00  0.0000000000000D+00
   419  4.1800000000000D+00  0.0000000000000D+00  0.0000000000000D+00
   420  4.1900000000000D+00  0.0000000000000D+00  0.0000000000000D+00
   421  4.2000000000000D+00  0.0000000000000D+00  0.0000000000000D+00
   422  4.2100000000000D+00  0.0000000000000D+00  0.0000000000000D+00