Zr    ONCVPSP-3.3.1  r_core=   2.49215   1.91692   2.18569
     40.0000     12.0000      210904    zatom,zion,pspd
     8      11   2     4   600     0    pspcod,pspxc,lmax,lloc,mmax,r2well
  5.99000000  0.00000000  0.00000000    rchrg fchrg qchrg
     2     3     4     0    nproj
     3     1           extension_switch
     4     4     0    nprojso
   0                         1.0513435176778D+00  5.4910721956567D+00
     1  0.0000000000000D+00 -8.0404710667281D-12  3.1569746816729D-12
     2  1.0000000000000D-02 -8.4929946310093D-03  4.3010542150993D-02
     3  2.0000000000000D-02 -1.6971541799191D-02  8.5981095600513D-02
     4  3.0000000000000D-02 -2.5421139300342D-02  1.2887168806030D-01
     5  4.0000000000000D-02 -3.3827175899352D-02  1.7164238020567D-01
     6  5.0000000000000D-02 -4.2174877942338D-02  2.1425328249948D-01
     7  6.0000000000000D-02 -5.0449257316225D-02  2.5666457242437D-01
     8  7.0000000000000D-02 -5.8635061195524D-02  2.9883651225576D-01
     9  8.0000000000000D-02 -6.6716724007989D-02  3.4072946750482D-01
    10  9.0000000000000D-02 -7.4678322040895D-02  3.8230392615674D-01
    11  1.0000000000000D-01 -8.2503531097669D-02  4.2352051882480D-01
    12  1.1000000000000D-01 -9.0175587600807D-02  4.6434003993562D-01
    13  1.2000000000000D-01 -9.7677253521294D-02  5.0472347005435D-01
    14  1.3000000000000D-01 -1.0499078549717D-01  5.4463199945213D-01
    15  1.4000000000000D-01 -1.1209790848462D-01  5.8402705301037D-01
    16  1.5000000000000D-01 -1.1897979426388D-01  6.2287031654816D-01
    17  1.6000000000000D-01 -1.2561704509970D-01  6.6112376465054D-01
    18  1.7000000000000D-01 -1.3198968283157D-01  6.9874969006560D-01
    19  1.8000000000000D-01 -1.3807714364354D-01  7.3571073472875D-01
    20  1.9000000000000D-01 -1.4385827873580D-01  7.7196992246161D-01
    21  2.0000000000000D-01 -1.4931136109195D-01  8.0749069338242D-01
    22  2.1000000000000D-01 -1.5441409850610D-01  8.4223694005295D-01
    23  2.2000000000000D-01 -1.5914365300255D-01  8.7617304537543D-01
    24  2.3000000000000D-01 -1.6347666674950D-01  9.0926392224062D-01
    25  2.4000000000000D-01 -1.6738929453447D-01  9.4147505491568D-01
    26  2.5000000000000D-01 -1.7085724283615D-01  9.7277254214769D-01
    27  2.6000000000000D-01 -1.7385581549227D-01  1.0031231419458D+00
    28  2.7000000000000D-01 -1.7635996592837D-01  1.0324943179918D+00
    29  2.8000000000000D-01 -1.7834435587697D-01  1.0608542876155D+00
    30  2.9000000000000D-01 -1.7978342048043D-01  1.0881720712583D+00
    31  3.0000000000000D-01 -1.8065143963541D-01  1.1144175433351D+00
    32  3.1000000000000D-01 -1.8092261540043D-01  1.1395614843915D+00
    33  3.2000000000000D-01 -1.8057115525258D-01  1.1635756344391D+00
    34  3.3000000000000D-01 -1.7957136094361D-01  1.1864327473423D+00
    35  3.4000000000000D-01 -1.7789772267103D-01  1.2081066461113D+00
    36  3.5000000000000D-01 -1.7552501824489D-01  1.2285722789522D+00
    37  3.6000000000000D-01 -1.7242841689780D-01  1.2478057759038D+00
    38  3.7000000000000D-01 -1.6858358735262D-01  1.2657845058878D+00
    39  3.8000000000000D-01 -1.6396680973105D-01  1.2824871339829D+00
    40  3.9000000000000D-01 -1.5855509085581D-01  1.2978936787244D+00
    41  4.0000000000000D-01 -1.5232628247023D-01  1.3119855692221D+00
    42  4.1000000000000D-01 -1.4525920187208D-01  1.3247457018806D+00
    43  4.2000000000000D-01 -1.3733375443265D-01  1.3361584964949D+00
    44  4.3000000000000D-01 -1.2853105744873D-01  1.3462099514915D+00
    45  4.4000000000000D-01 -1.1883356475370D-01  1.3548876980751D+00
    46  4.5000000000000D-01 -1.0822519149438D-01  1.3621810530368D+00
    47  4.6000000000000D-01 -9.6691438463808D-02  1.3680810699755D+00
    48  4.7000000000000D-01 -8.4219515365318D-02  1.3725805886802D+00
    49  4.8000000000000D-01 -7.0798462371812D-02  1.3756742824181D+00
    50  4.9000000000000D-01 -5.6419269334900D-02  1.3773587028734D+00
    51  5.0000000000000D-01 -4.1074991992554D-02  1.3776323224799D+00
    52  5.1000000000000D-01 -2.4760864520555D-02  1.3764955738928D+00
    53  5.2000000000000D-01 -7.4744077730148D-03  1.3739508863461D+00
    54  5.3000000000000D-01  1.0784467439996D-02  1.3700027186477D+00
    55  5.4000000000000D-01  3.0013362683415D-02  1.3646575885653D+00
    56  5.5000000000000D-01  5.0207300473210D-02  1.3579240983661D+00
    57  5.6000000000000D-01  7.1358639721217D-02  1.3498129562783D+00
    58  5.7000000000000D-01  9.3456998656847D-02  1.3403369936506D+00
    59  5.8000000000000D-01  1.1648918581432D-01  1.3295111775973D+00
    60  5.9000000000000D-01  1.4043913965191D-01  1.3173526189265D+00
    61  6.0000000000000D-01  1.6528787734380D-01  1.3038805751609D+00
    62  6.1000000000000D-01  1.9101345325654D-01  1.2891164484749D+00
    63  6.2000000000000D-01  2.1759092758979D-01  1.2730837783855D+00
    64  6.3000000000000D-01  2.4499234562646D-01  1.2558082290521D+00
    65  6.4000000000000D-01  2.7318672799892D-01  1.2373175710528D+00
    66  6.5000000000000D-01  3.0214007233762D-01  1.2176416575290D+00
    67  6.6000000000000D-01  3.3181536662443D-01  1.1968123946028D+00
    68  6.7000000000000D-01  3.6217261452778D-01  1.1748637059952D+00
    69  6.8000000000000D-01  3.9316887294722D-01  1.1518314917930D+00
    70  6.9000000000000D-01  4.2475830194556D-01  1.1277535813320D+00
    71  7.0000000000000D-01  4.5689222719306D-01  1.1026696801892D+00
    72  7.1000000000000D-01  4.8951921499488D-01  1.0766213112960D+00
    73  7.2000000000000D-01  5.2258515991594D-01  1.0496517502102D+00
    74  7.3000000000000D-01  5.5603338496104D-01  1.0218059546071D+00
    75  7.4000000000000D-01  5.8980475420931D-01  9.9313048807337D-01
    76  7.5000000000000D-01  6.2383779774293D-01  9.6367343831365D-01
    77  7.6000000000000D-01  6.5806884865098D-01  9.3348432990068D-01
    78  7.7000000000000D-01  6.9243219182862D-01  9.0261403172763D-01
    79  7.8000000000000D-01  7.2686022423278D-01  8.7111465934294D-01
    80  7.9000000000000D-01  7.6128362619560D-01  8.3903947237285D-01
    81  8.0000000000000D-01  7.9563154333837D-01  8.0644276726023D-01
    82  8.1000000000000D-01  8.2983177857053D-01  7.7337976557160D-01
    83  8.2000000000000D-01  8.6381099360226D-01  7.3990649814636D-01
    84  8.3000000000000D-01  8.9749491934354D-01  7.0607968538450D-01
    85  8.4000000000000D-01  9.3080857450976D-01  6.7195661398993D-01
    86  8.5000000000000D-01  9.6367649170299D-01  6.3759501050669D-01
    87  8.6000000000000D-01  9.9602295018916D-01  6.0305291200447D-01
    88  8.7000000000000D-01  1.0277722145458D+00  5.6838853428786D-01
    89  8.8000000000000D-01  1.0588487783122D+00  5.3366013802031D-01
    90  8.9000000000000D-01  1.0891776117338D+00  4.9892589316964D-01
    91  9.0000000000000D-01  1.1186844126575D+00  4.6424374219529D-01
    92  9.1000000000000D-01  1.1472958596009D+00  4.2967126241058D-01
    93  9.2000000000000D-01  1.1749398659921D+00  3.9526552796370D-01
    94  9.3000000000000D-01  1.2015458345495D+00  3.6108297189068D-01
    95  9.4000000000000D-01  1.2270449107551D+00  3.2717924870075D-01
    96  9.5000000000000D-01  1.2513702343561D+00  2.9360909796049D-01
    97  9.6000000000000D-01  1.2744571878210D+00  2.6042620934671D-01
    98  9.7000000000000D-01  1.2962436406687D+00  2.2768308964012D-01
    99  9.8000000000000D-01  1.3166701885911D+00  1.9543093213179D-01
   100  9.9000000000000D-01  1.3356803862900D+00  1.6371948891240D-01
   101  1.0000000000000D+00  1.3532209729603D+00  1.3259694651042D-01
   102  1.0100000000000D+00  1.3692420893656D+00  1.0210980533946D-01
   103  1.0200000000000D+00  1.3836974854691D+00  7.2302763407025D-02
   104  1.0300000000000D+00  1.3965447176090D+00  4.3218604727424D-02
   105  1.0400000000000D+00  1.4077453342346D+00  1.4898092869145D-02
   106  1.0500000000000D+00  1.4172650492549D+00 -1.2620129946035D-02
   107  1.0600000000000D+00  1.4250739020859D+00 -3.9299637790366D-02
   108  1.0700000000000D+00  1.4311464035300D+00 -6.5106309640208D-02
   109  1.0800000000000D+00  1.4354616666655D+00 -9.0008411283378D-02
   110  1.0900000000000D+00  1.4380035219770D+00 -1.1397667017996D-01
   111  1.1000000000000D+00  1.4387606160116D+00 -1.3698434295427D-01
   112  1.1100000000000D+00  1.4377264929029D+00 -1.5900727521906D-01
   113  1.1200000000000D+00  1.4348996581735D+00 -1.8002395346016D-01
   114  1.1300000000000D+00  1.4302836242853D+00 -2.0001554873459D-01
   115  1.1400000000000D+00  1.4238869374849D+00 -2.1896595196496D-01
   116  1.1500000000000D+00  1.4157231855441D+00 -2.3686180063626D-01
   117  1.1600000000000D+00  1.4058109860913D+00 -2.5369249673862D-01
   118  1.1700000000000D+00  1.3941739552934D+00 -2.6945021582555D-01
   119  1.1800000000000D+00  1.3808406567234D+00 -2.8412990708888D-01
   120  1.1900000000000D+00  1.3658445303216D+00 -2.9772928438041D-01
   121  1.2000000000000D+00  1.3492238014536D+00 -3.1024880814881D-01
   122  1.2100000000000D+00  1.3310213701417D+00 -3.2169165829217D-01
   123  1.2200000000000D+00  1.3112846805978D+00 -3.3206369794524D-01
   124  1.2300000000000D+00  1.2900655713052D+00 -3.4137342827170D-01
   125  1.2400000000000D+00  1.2674201059585D+00 -3.4963193435651D-01
   126  1.2500000000000D+00  1.2434083856258D+00 -3.5685282231625D-01
   127  1.2600000000000D+00  1.2180943425965D+00 -3.6305214778639D-01
   128  1.2700000000000D+00  1.1915455164562D+00 -3.6824833597897D-01
   129  1.2800000000000D+00  1.1638328129691D+00 -3.7246209351806D-01
   130  1.2900000000000D+00  1.1350302464304D+00 -3.7571631229816D-01
   131  1.3000000000000D+00  1.1052146662453D+00 -3.7803596564840D-01
   132  1.3100000000000D+00  1.0744654684910D+00 -3.7944799708805D-01
   133  1.3200000000000D+00  1.0428642933167D+00 -3.7998120200004D-01
   134  1.3300000000000D+00  1.0104947091046D+00 -3.7966610258017D-01
   135  1.3400000000000D+00  9.7744188429427D-01 -3.7853481641179D-01
   136  1.3500000000000D+00  9.4379224789154D-01 -3.7662091906699D-01
   137  1.3600000000000D+00  9.0963313969298D-01 -3.7395930114516D-01
   138  1.3700000000000D+00  8.7505245125264D-01 -3.7058602015300D-01
   139  1.3800000000000D+00  8.4013825872514D-01 -3.6653814768642D-01
   140  1.3900000000000D+00  8.0497844866719D-01 -3.6185361234996D-01
   141  1.4000000000000D+00  7.6966033793968D-01 -3.5657103887699D-01
   142  1.4100000000000D+00  7.3427028885443D-01 -3.5072958392615D-01
   143  1.4200000000000D+00  6.9889332070779D-01 -3.4436876901878D-01
   144  1.4300000000000D+00  6.6361271886140D-01 -3.3752831110705D-01
   145  1.4400000000000D+00  6.2850964249596D-01 -3.3024795124447D-01
   146  1.4500000000000D+00  5.9366273221142D-01 -3.2256728185076D-01
   147  1.4600000000000D+00  5.5914771852674D-01 -3.1452557303355D-01
   148  1.4700000000000D+00  5.2503703246640D-01 -3.0616159846247D-01
   149  1.4800000000000D+00  4.9139941624584D-01 -2.9751346056593D-01
   150  1.4900000000000D+00  4.5829955431124D-01 -2.8861841988001D-01
   151  1.5000000000000D+00  4.2579765095459D-01 -2.7951271166161D-01
   152  1.5100000000000D+00  3.9394919175712D-01 -2.7023140624678D-01
   153  1.5200000000000D+00  3.6280445331050D-01 -2.6080820734010D-01
   154  1.5300000000000D+00  3.3240779387511D-01 -2.5127520822384D-01
   155  1.5400000000000D+00  3.0279867814943D-01 -2.4166303479656D-01
   156  1.5500000000000D+00  2.7401245421591D-01 -2.3200094422329D-01
   157  1.5600000000000D+00  2.4608144256072D-01 -2.2231703539969D-01
   158  1.5700000000000D+00  2.1903566657377D-01 -2.1263838002534D-01
   159  1.5800000000000D+00  1.9290236722001D-01 -2.0299089158819D-01
   160  1.5900000000000D+00  1.6770594584835D-01 -1.9339929193879D-01
   161  1.6000000000000D+00  1.4346799180200D-01 -1.8388709486629D-01
   162  1.6100000000000D+00  1.2020722134022D-01 -1.7447657399841D-01
   163  1.6200000000000D+00  9.7939465915028D-02 -1.6518874297102D-01
   164  1.6300000000000D+00  7.6677658691645D-02 -1.5604333713929D-01
   165  1.6400000000000D+00  5.6431834598099D-02 -1.4705880011413D-01
   166  1.6500000000000D+00  3.7209141666211D-02 -1.3825227468015D-01
   167  1.6600000000000D+00  1.9013863033691D-02 -1.2963959790937D-01
   168  1.6700000000000D+00  1.8474494350797D-03 -1.2123530045157D-01
   169  1.6800000000000D+00 -1.4291438434194D-02 -1.1305260980020D-01
   170  1.6900000000000D+00 -2.9406876601936D-02 -1.0510345784502D-01
   171  1.7000000000000D+00 -4.3505615182700D-02 -9.7398492226157D-02
   172  1.7100000000000D+00 -5.6597006539411D-02 -8.9947091497972D-02
   173  1.7200000000000D+00 -6.8692923982618D-02 -8.2757384112143D-02
   174  1.7300000000000D+00 -7.9807673516909D-02 -7.5836270541137D-02
   175  1.7400000000000D+00 -8.9957899085719D-02 -6.9189448375095D-02
   176  1.7500000000000D+00 -9.9162476358979D-02 -6.2821441763151D-02
   177  1.7600000000000D+00 -1.0744239860868D-01 -5.6735634167761D-02
   178  1.7700000000000D+00 -1.1482065975449D-01 -5.0934303050545D-02
   179  1.7800000000000D+00 -1.2132213246030D-01 -4.5418657012621D-02
   180  1.7900000000000D+00 -1.2697343888029D-01 -4.0188876034090D-02
   181  1.8000000000000D+00 -1.3180281635347D-01 -3.5244154135844D-02
   182  1.8100000000000D+00 -1.3583997984817D-01 -3.0582743948661D-02
   183  1.8200000000000D+00 -1.3911598122745D-01 -2.6202003128907D-02
   184  1.8300000000000D+00 -1.4166306561657D-01 -2.2098442501054D-02
   185  1.8400000000000D+00 -1.4351452566377D-01 -1.8267775681807D-02
   186  1.8500000000000D+00 -1.4470455445199D-01 -1.4704969918189D-02
   187  1.8600000000000D+00 -1.4526809767917D-01 -1.1404297952689D-02
   188  1.8700000000000D+00 -1.4524070565399D-01 -8.3593906902209D-03
   189  1.8800000000000D+00 -1.4465838598652D-01 -5.5632904137860D-03
   190  1.8900000000000D+00 -1.4355745726418D-01 -3.0085043909431D-03
   191  1.9000000000000D+00 -1.4197440474863D-01 -6.8705856500638D-04
   192  1.9100000000000D+00 -1.3994573828707D-01  1.4094487872777D-03
   193  1.9200000000000D+00 -1.3750785336711D-01  3.2897937272286D-03
   194  1.9300000000000D+00 -1.3469689572024D-01  4.9630738166438D-03
   195  1.9400000000000D+00 -1.3154862991931D-01  6.4386559458865D-03
   196  1.9500000000000D+00 -1.2809831296612D-01  7.7261251481582D-03
   197  1.9600000000000D+00 -1.2438057245960D-01  8.8352343361540D-03
   198  1.9700000000000D+00 -1.2042929108132D-01  9.7758554958009D-03
   199  1.9800000000000D+00 -1.1627749645853D-01  1.0557932114575D-02
   200  1.9900000000000D+00 -1.1195725796093D-01  1.1191433337044D-02
   201  2.0000000000000D+00 -1.0749959013196D-01  1.1686309802025D-02
   202  2.0100000000000D+00 -1.0293436308728D-01  1.2052451301238D-02
   203  2.0200000000000D+00 -9.8290220946275D-02  1.2299646617284D-02
   204  2.0300000000000D+00 -9.3594507034048D-02  1.2437545200098D-02
   205  2.0400000000000D+00 -8.8873198053595D-02  1.2475621388717D-02
   206  2.0500000000000D+00 -8.4150845518508D-02  1.2423140693797D-02
   207  2.0600000000000D+00 -7.9450525768505D-02  1.2289128586363D-02
   208  2.0700000000000D+00 -7.4793798567528D-02  1.2082341830759D-02
   209  2.0800000000000D+00 -7.0200673223170D-02  1.1811242066528D-02
   210  2.0900000000000D+00 -6.5689584304235D-02  1.1483972332386D-02
   211  2.1000000000000D+00 -6.1277374601468D-02  1.1108335821474D-02
   212  2.1100000000000D+00 -5.6979287021454D-02  1.0691777446519D-02
   213  2.1200000000000D+00 -5.2808964732328D-02  1.0241368033504D-02
   214  2.1300000000000D+00 -4.8778458541280D-02  9.7637908487420D-03
   215  2.1400000000000D+00 -4.4898243351439D-02  9.2653311060104D-03
   216  2.1500000000000D+00 -4.1177241107155D-02  8.7518676343938D-03
   217  2.1600000000000D+00 -3.7622851672880D-02  8.2288672300140D-03
   218  2.1700000000000D+00 -3.4240990996377D-02  7.7013815152224D-03
   219  2.1800000000000D+00 -3.1036135013640D-02  7.1740458161039D-03
   220  2.1900000000000D+00 -2.8011371229793D-02  6.6510807754565D-03
   221  2.2000000000000D+00 -2.5168455298702D-02  6.1362958073397D-03
   222  2.2100000000000D+00 -2.2507873373660D-02  5.6330947134195D-03
   223  2.2200000000000D+00 -2.0028910021869D-02  5.1444834407605D-03
   224  2.2300000000000D+00 -1.7729719923765D-02  4.6730793706207D-03
   225  2.2400000000000D+00 -1.5607404435240D-02  4.2211226114096D-03
   226  2.2500000000000D+00 -1.3658091475755D-02  3.7904887612558D-03
   227  2.2600000000000D+00 -1.1877018194178D-02  3.3827029785360D-03
   228  2.2700000000000D+00 -1.0258616674132D-02  2.9989555693070D-03
   229  2.2800000000000D+00 -8.7966011875708D-03  2.6401185044222D-03
   230  2.2900000000000D+00 -7.4840569040541D-03  2.3067629445360D-03
   231  2.3000000000000D+00 -6.3135294228532D-03  1.9991776037339D-03
   232  2.3100000000000D+00 -5.2771145504208D-03  1.7173876735344D-03
   233  2.3200000000000D+00 -4.3665475248026D-03  1.4611742147752D-03
   234  2.3300000000000D+00 -3.5732912165192D-03  1.2300938031558D-03
   235  2.3400000000000D+00 -2.8886233697424D-03  1.0234983919594D-03
   236  2.3500000000000D+00 -2.3037207302580D-03  8.4055490856024D-04
   237  2.3600000000000D+00 -1.8097411659560D-03  6.8026475768713D-04
   238  2.3700000000000D+00 -1.3979029577898D-03  5.4148303018359D-04
   239  2.3800000000000D+00 -1.0595590406859D-03  4.2293681431229D-04
   240  2.3900000000000D+00 -7.8626832139758D-04  3.2324313351431D-04
   241  2.4000000000000D+00 -5.6986211069261D-04  2.4092597803111D-04
   242  2.4100000000000D+00 -4.0253236600398D-04  1.7443460330794D-04
   243  2.4200000000000D+00 -2.7680239746560D-04  1.2215090277684D-04
   244  2.4300000000000D+00 -1.8560955930107D-04  8.2406004816358D-05
   245  2.4400000000000D+00 -1.2212628561929D-04  5.3406759901187D-05
   246  2.4500000000000D+00 -8.0841424878871D-05  3.3561737867119D-05
   247  2.4600000000000D+00 -5.6821136061272D-05  2.1266026798010D-05
   248  2.4700000000000D+00 -4.6325512187939D-05  1.5159593740893D-05
   249  2.4800000000000D+00 -4.2379306356590D-05  1.2627819348153D-05
   250  2.4900000000000D+00 -3.8590348787787D-05  1.1160485564309D-05
   251  2.5000000000000D+00 -2.8515269794338D-05  8.2014355281301D-06
   252  2.5100000000000D+00 -1.4902348922304D-05  4.2986850008924D-06
   253  2.5200000000000D+00 -2.1490989112627D-06  6.2422221582089D-07
   254  2.5300000000000D+00  3.3940064460370D-06 -9.5365962053367D-07
   255  2.5400000000000D+00  3.4347534885875D-06 -9.6429541515629D-07
   256  2.5500000000000D+00  7.3710294808093D-07 -2.0690981778680D-07
   257  2.5600000000000D+00 -6.7239680085870D-07  1.8605209319384D-07
   258  2.5700000000000D+00 -7.9489692991396D-07  2.1947788550142D-07
   259  2.5800000000000D+00 -2.2608826421315D-07  6.2312594507547D-08
   260  2.5900000000000D+00  7.5766298720462D-08 -2.1901695149753D-08
   261  2.6000000000000D+00  1.0289045284273D-07 -2.9742449743991D-08
   262  2.6100000000000D+00  3.8826618585466D-08 -1.1223575366827D-08
   263  2.6200000000000D+00  0.0000000000000D+00  0.0000000000000D+00
   264  2.6300000000000D+00  0.0000000000000D+00  0.0000000000000D+00
   265  2.6400000000000D+00  0.0000000000000D+00  0.0000000000000D+00
   266  2.6500000000000D+00  0.0000000000000D+00  0.0000000000000D+00
   267  2.6600000000000D+00  0.0000000000000D+00  0.0000000000000D+00
   268  2.6700000000000D+00  0.0000000000000D+00  0.0000000000000D+00
   269  2.6800000000000D+00  0.0000000000000D+00  0.0000000000000D+00
   270  2.6900000000000D+00  0.0000000000000D+00  0.0000000000000D+00
   271  2.7000000000000D+00  0.0000000000000D+00  0.0000000000000D+00
   272  2.7100000000000D+00  0.0000000000000D+00  0.0000000000000D+00
   273  2.7200000000000D+00  0.0000000000000D+00  0.0000000000000D+00
   274  2.7300000000000D+00  0.0000000000000D+00  0.0000000000000D+00
   275  2.7400000000000D+00  0.0000000000000D+00  0.0000000000000D+00
   276  2.7500000000000D+00  0.0000000000000D+00  0.0000000000000D+00
   277  2.7600000000000D+00  0.0000000000000D+00  0.0000000000000D+00
   278  2.7700000000000D+00  0.0000000000000D+00  0.0000000000000D+00
   279  2.7800000000000D+00  0.0000000000000D+00  0.0000000000000D+00
   280  2.7900000000000D+00  0.0000000000000D+00  0.0000000000000D+00
   281  2.8000000000000D+00  0.0000000000000D+00  0.0000000000000D+00
   282  2.8100000000000D+00  0.0000000000000D+00  0.0000000000000D+00
   283  2.8200000000000D+00  0.0000000000000D+00  0.0000000000000D+00
   284  2.8300000000000D+00  0.0000000000000D+00  0.0000000000000D+00
   285  2.8400000000000D+00  0.0000000000000D+00  0.0000000000000D+00
   286  2.8500000000000D+00  0.0000000000000D+00  0.0000000000000D+00
   287  2.8600000000000D+00  0.0000000000000D+00  0.0000000000000D+00
   288  2.8700000000000D+00  0.0000000000000D+00  0.0000000000000D+00
   289  2.8800000000000D+00  0.0000000000000D+00  0.0000000000000D+00
   290  2.8900000000000D+00  0.0000000000000D+00  0.0000000000000D+00
   291  2.9000000000000D+00  0.0000000000000D+00  0.0000000000000D+00
   292  2.9100000000000D+00  0.0000000000000D+00  0.0000000000000D+00
   293  2.9200000000000D+00  0.0000000000000D+00  0.0000000000000D+00
   294  2.9300000000000D+00  0.0000000000000D+00  0.0000000000000D+00
   295  2.9400000000000D+00  0.0000000000000D+00  0.0000000000000D+00
   296  2.9500000000000D+00  0.0000000000000D+00  0.0000000000000D+00
   297  2.9600000000000D+00  0.0000000000000D+00  0.0000000000000D+00
   298  2.9700000000000D+00  0.0000000000000D+00  0.0000000000000D+00
   299  2.9800000000000D+00  0.0000000000000D+00  0.0000000000000D+00
   300  2.9900000000000D+00  0.0000000000000D+00  0.0000000000000D+00
   301  3.0000000000000D+00  0.0000000000000D+00  0.0000000000000D+00
   302  3.0100000000000D+00  0.0000000000000D+00  0.0000000000000D+00
   303  3.0200000000000D+00  0.0000000000000D+00  0.0000000000000D+00
   304  3.0300000000000D+00  0.0000000000000D+00  0.0000000000000D+00
   305  3.0400000000000D+00  0.0000000000000D+00  0.0000000000000D+00
   306  3.0500000000000D+00  0.0000000000000D+00  0.0000000000000D+00
   307  3.0600000000000D+00  0.0000000000000D+00  0.0000000000000D+00
   308  3.0700000000000D+00  0.0000000000000D+00  0.0000000000000D+00
   309  3.0800000000000D+00  0.0000000000000D+00  0.0000000000000D+00
   310  3.0900000000000D+00  0.0000000000000D+00  0.0000000000000D+00
   311  3.1000000000000D+00  0.0000000000000D+00  0.0000000000000D+00
   312  3.1100000000000D+00  0.0000000000000D+00  0.0000000000000D+00
   313  3.1200000000000D+00  0.0000000000000D+00  0.0000000000000D+00
   314  3.1300000000000D+00  0.0000000000000D+00  0.0000000000000D+00
   315  3.1400000000000D+00  0.0000000000000D+00  0.0000000000000D+00
   316  3.1500000000000D+00  0.0000000000000D+00  0.0000000000000D+00
   317  3.1600000000000D+00  0.0000000000000D+00  0.0000000000000D+00
   318  3.1700000000000D+00  0.0000000000000D+00  0.0000000000000D+00
   319  3.1800000000000D+00  0.0000000000000D+00  0.0000000000000D+00
   320  3.1900000000000D+00  0.0000000000000D+00  0.0000000000000D+00
   321  3.2000000000000D+00  0.0000000000000D+00  0.0000000000000D+00
   322  3.2100000000000D+00  0.0000000000000D+00  0.0000000000000D+00
   323  3.2200000000000D+00  0.0000000000000D+00  0.0000000000000D+00
   324  3.2300000000000D+00  0.0000000000000D+00  0.0000000000000D+00
   325  3.2400000000000D+00  0.0000000000000D+00  0.0000000000000D+00
   326  3.2500000000000D+00  0.0000000000000D+00  0.0000000000000D+00
   327  3.2600000000000D+00  0.0000000000000D+00  0.0000000000000D+00
   328  3.2700000000000D+00  0.0000000000000D+00  0.0000000000000D+00
   329  3.2800000000000D+00  0.0000000000000D+00  0.0000000000000D+00
   330  3.2900000000000D+00  0.0000000000000D+00  0.0000000000000D+00
   331  3.3000000000000D+00  0.0000000000000D+00  0.0000000000000D+00
   332  3.3100000000000D+00  0.0000000000000D+00  0.0000000000000D+00
   333  3.3200000000000D+00  0.0000000000000D+00  0.0000000000000D+00
   334  3.3300000000000D+00  0.0000000000000D+00  0.0000000000000D+00
   335  3.3400000000000D+00  0.0000000000000D+00  0.0000000000000D+00
   336  3.3500000000000D+00  0.0000000000000D+00  0.0000000000000D+00
   337  3.3600000000000D+00  0.0000000000000D+00  0.0000000000000D+00
   338  3.3700000000000D+00  0.0000000000000D+00  0.0000000000000D+00
   339  3.3800000000000D+00  0.0000000000000D+00  0.0000000000000D+00
   340  3.3900000000000D+00  0.0000000000000D+00  0.0000000000000D+00
   341  3.4000000000000D+00  0.0000000000000D+00  0.0000000000000D+00
   342  3.4100000000000D+00  0.0000000000000D+00  0.0000000000000D+00
   343  3.4200000000000D+00  0.0000000000000D+00  0.0000000000000D+00
   344  3.4300000000000D+00  0.0000000000000D+00  0.0000000000000D+00
   345  3.4400000000000D+00  0.0000000000000D+00  0.0000000000000D+00
   346  3.4500000000000D+00  0.0000000000000D+00  0.0000000000000D+00
   347  3.4600000000000D+00  0.0000000000000D+00  0.0000000000000D+00
   348  3.4700000000000D+00  0.0000000000000D+00  0.0000000000000D+00
   349  3.4800000000000D+00  0.0000000000000D+00  0.0000000000000D+00
   350  3.4900000000000D+00  0.0000000000000D+00  0.0000000000000D+00
   351  3.5000000000000D+00  0.0000000000000D+00  0.0000000000000D+00
   352  3.5100000000000D+00  0.0000000000000D+00  0.0000000000000D+00
   353  3.5200000000000D+00  0.0000000000000D+00  0.0000000000000D+00
   354  3.5300000000000D+00  0.0000000000000D+00  0.0000000000000D+00
   355  3.5400000000000D+00  0.0000000000000D+00  0.0000000000000D+00
   356  3.5500000000000D+00  0.0000000000000D+00  0.0000000000000D+00
   357  3.5600000000000D+00  0.0000000000000D+00  0.0000000000000D+00
   358  3.5700000000000D+00  0.0000000000000D+00  0.0000000000000D+00
   359  3.5800000000000D+00  0.0000000000000D+00  0.0000000000000D+00
   360  3.5900000000000D+00  0.0000000000000D+00  0.0000000000000D+00
   361  3.6000000000000D+00  0.0000000000000D+00  0.0000000000000D+00
   362  3.6100000000000D+00  0.0000000000000D+00  0.0000000000000D+00
   363  3.6200000000000D+00  0.0000000000000D+00  0.0000000000000D+00
   364  3.6300000000000D+00  0.0000000000000D+00  0.0000000000000D+00
   365  3.6400000000000D+00  0.0000000000000D+00  0.0000000000000D+00
   366  3.6500000000000D+00  0.0000000000000D+00  0.0000000000000D+00
   367  3.6600000000000D+00  0.0000000000000D+00  0.0000000000000D+00
   368  3.6700000000000D+00  0.0000000000000D+00  0.0000000000000D+00
   369  3.6800000000000D+00  0.0000000000000D+00  0.0000000000000D+00
   370  3.6900000000000D+00  0.0000000000000D+00  0.0000000000000D+00
   371  3.7000000000000D+00  0.0000000000000D+00  0.0000000000000D+00
   372  3.7100000000000D+00  0.0000000000000D+00  0.0000000000000D+00
   373  3.7200000000000D+00  0.0000000000000D+00  0.0000000000000D+00
   374  3.7300000000000D+00  0.0000000000000D+00  0.0000000000000D+00
   375  3.7400000000000D+00  0.0000000000000D+00  0.0000000000000D+00
   376  3.7500000000000D+00  0.0000000000000D+00  0.0000000000000D+00
   377  3.7600000000000D+00  0.0000000000000D+00  0.0000000000000D+00
   378  3.7700000000000D+00  0.0000000000000D+00  0.0000000000000D+00
   379  3.7800000000000D+00  0.0000000000000D+00  0.0000000000000D+00
   380  3.7900000000000D+00  0.0000000000000D+00  0.0000000000000D+00
   381  3.8000000000000D+00  0.0000000000000D+00  0.0000000000000D+00
   382  3.8100000000000D+00  0.0000000000000D+00  0.0000000000000D+00
   383  3.8200000000000D+00  0.0000000000000D+00  0.0000000000000D+00
   384  3.8300000000000D+00  0.0000000000000D+00  0.0000000000000D+00
   385  3.8400000000000D+00  0.0000000000000D+00  0.0000000000000D+00
   386  3.8500000000000D+00  0.0000000000000D+00  0.0000000000000D+00
   387  3.8600000000000D+00  0.0000000000000D+00  0.0000000000000D+00
   388  3.8700000000000D+00  0.0000000000000D+00  0.0000000000000D+00
   389  3.8800000000000D+00  0.0000000000000D+00  0.0000000000000D+00
   390  3.8900000000000D+00  0.0000000000000D+00  0.0000000000000D+00
   391  3.9000000000000D+00  0.0000000000000D+00  0.0000000000000D+00
   392  3.9100000000000D+00  0.0000000000000D+00  0.0000000000000D+00
   393  3.9200000000000D+00  0.0000000000000D+00  0.0000000000000D+00
   394  3.9300000000000D+00  0.0000000000000D+00  0.0000000000000D+00
   395  3.9400000000000D+00  0.0000000000000D+00  0.0000000000000D+00
   396  3.9500000000000D+00  0.0000000000000D+00  0.0000000000000D+00
   397  3.9600000000000D+00  0.0000000000000D+00  0.0000000000000D+00
   398  3.9700000000000D+00  0.0000000000000D+00  0.0000000000000D+00
   399  3.9800000000000D+00  0.0000000000000D+00  0.0000000000000D+00
   400  3.9900000000000D+00  0.0000000000000D+00  0.0000000000000D+00
   401  4.0000000000000D+00  0.0000000000000D+00  0.0000000000000D+00
   402  4.0100000000000D+00  0.0000000000000D+00  0.0000000000000D+00
   403  4.0200000000000D+00  0.0000000000000D+00  0.0000000000000D+00
   404  4.0300000000000D+00  0.0000000000000D+00  0.0000000000000D+00
   405  4.0400000000000D+00  0.0000000000000D+00  0.0000000000000D+00
   406  4.0500000000000D+00  0.0000000000000D+00  0.0000000000000D+00
   407  4.0600000000000D+00  0.0000000000000D+00  0.0000000000000D+00
   408  4.0700000000000D+00  0.0000000000000D+00  0.0000000000000D+00
   409  4.0800000000000D+00  0.0000000000000D+00  0.0000000000000D+00
   410  4.0900000000000D+00  0.0000000000000D+00  0.0000000000000D+00
   411  4.1000000000000D+00  0.0000000000000D+00  0.0000000000000D+00
   412  4.1100000000000D+00  0.0000000000000D+00  0.0000000000000D+00
   413  4.1200000000000D+00  0.0000000000000D+00  0.0000000000000D+00
   414  4.1300000000000D+00  0.0000000000000D+00  0.0000000000000D+00
   415  4.1400000000000D+00  0.0000000000000D+00  0.0000000000000D+00
   416  4.1500000000000D+00  0.0000000000000D+00  0.0000000000000D+00
   417  4.1600000000000D+00  0.0000000000000D+00  0.0000000000000D+00
   418  4.1700000000000D+00  0.0000000000000D+00  0.0000000000000D+00
   419  4.1800000000000D+00  0.0000000000000D+00  0.0000000000000D+00
   420  4.1900000000000D+00  0.0000000000000D+00  0.0000000000000D+00
   421  4.2000000000000D+00  0.0000000000000D+00  0.0000000000000D+00
   422  4.2100000000000D+00  0.0000000000000D+00  0.0000000000000D+00