Zr    ONCVPSP-3.3.1  r_core=   2.49215   1.91692   2.18569
     40.0000     12.0000      210904    zatom,zion,pspd
     8      11   2     4   600     0    pspcod,pspxc,lmax,lloc,mmax,r2well
  5.99000000  0.00000000  0.00000000    rchrg fchrg qchrg
     2     2     2     0     0    nproj
     1     1           extension_switch
   0                         5.4886555625485D+00  1.0511332683825D+00
     1  0.0000000000000D+00  3.1462055183340D-12 -8.0049439299401D-12
     2  1.0000000000000D-02  4.3023255664019D-02 -8.4892503365711D-03
     3  2.0000000000000D-02  8.6006482724211D-02 -1.6964035572303D-02
     4  3.0000000000000D-02  1.2890966910193D-01 -2.5409835957944D-02
     5  4.0000000000000D-02  1.7169283590574D-01 -3.3812022898907D-02
     6  5.0000000000000D-02  2.1431605436630D-01 -4.2155805659260D-02
     7  6.0000000000000D-02  2.5673946317864D-01 -5.0426179412093D-02
     8  7.0000000000000D-02  2.9892328638382D-01 -5.8607875075602D-02
     9  8.0000000000000D-02  3.4082785191892D-01 -6.6685311366273D-02
    10  9.0000000000000D-02  3.8241361096037D-01 -7.4642549490506D-02
    11  1.0000000000000D-01  4.2364115818090D-01 -8.2463250884118D-02
    12  1.1000000000000D-01  4.6447125303493D-01 -9.0130638395301D-02
    13  1.2000000000000D-01  5.0486484218122D-01 -9.7627461290934D-02
    14  1.3000000000000D-01  5.4478308314452D-01 -1.0493596444859D-01
    15  1.4000000000000D-01  5.8418736931066D-01 -1.1203786207732D-01
    16  1.5000000000000D-01  6.2303935634110D-01 -1.1891431628924D-01
    17  1.6000000000000D-01  6.6130099008431D-01 -1.2554592082127D-01
    18  1.7000000000000D-01  6.9893453605192D-01 -1.3191269018228D-01
    19  1.8000000000000D-01  7.3590261051744D-01 -1.3799405447480D-01
    20  1.9000000000000D-01  7.7216821328521D-01 -1.4376886011366D-01
    21  2.0000000000000D-01  8.0769476216582D-01 -1.4921537663503D-01
    22  2.1000000000000D-01  8.4244612918308D-01 -1.5431130975987D-01
    23  2.2000000000000D-01  8.7638667852591D-01 -1.5903382084453D-01
    24  2.3000000000000D-01  9.0948130624590D-01 -1.6335955281943D-01
    25  2.4000000000000D-01  9.4169548168922D-01 -1.6726466268397D-01
    26  2.5000000000000D-01  9.7299529063867D-01 -1.7072486059162D-01
    27  2.6000000000000D-01  1.0033474801285D+00 -1.7371545552524D-01
    28  2.7000000000000D-01  1.0327195048821D+00 -1.7621140752722D-01
    29  2.8000000000000D-01  1.0610795753081D+00 -1.7818738641380D-01
    30  2.9000000000000D-01  1.0883967069797D+00 -1.7961783686718D-01
    31  3.0000000000000D-01  1.1146407715053D+00 -1.8047704976300D-01
    32  3.1000000000000D-01  1.1397825486893D+00 -1.8073923955495D-01
    33  3.2000000000000D-01  1.1637937798649D+00 -1.8037862750246D-01
    34  3.3000000000000D-01  1.1866472222716D+00 -1.7936953049201D-01
    35  3.4000000000000D-01  1.2083167043348D+00 -1.7768645516751D-01
    36  3.5000000000000D-01  1.2287771816944D+00 -1.7530419705071D-01
    37  3.6000000000000D-01  1.2480047938167D+00 -1.7219794429938D-01
    38  3.7000000000000D-01  1.2659769210123D+00 -1.6834338571782D-01
    39  3.8000000000000D-01  1.2826722416728D+00 -1.6371682260302D-01
    40  3.9000000000000D-01  1.2980707895281D+00 -1.5829528397948D-01
    41  4.0000000000000D-01  1.3121540107165D+00 -1.5205664474687D-01
    42  4.1000000000000D-01  1.3249048204513D+00 -1.4497974623721D-01
    43  4.2000000000000D-01  1.3363076590588D+00 -1.3704451865333D-01
    44  4.3000000000000D-01  1.3463485471570D+00 -1.2823210483626D-01
    45  4.4000000000000D-01  1.3550151397343D+00 -1.1852498478802D-01
    46  4.5000000000000D-01  1.3622967788867D+00 -1.0790710035705D-01
    47  4.6000000000000D-01  1.3681845449630D+00 -9.6363979476482D-02
    48  4.7000000000000D-01  1.3726713058678D+00 -8.3882859331215D-02
    49  4.8000000000000D-01  1.3757517642666D+00 -7.0452807817847D-02
    50  4.9000000000000D-01  1.3774225024375D+00 -5.6064842652650D-02
    51  5.0000000000000D-01  1.3776820245148D+00 -4.0712047476541D-02
    52  5.1000000000000D-01  1.3765307958681D+00 -2.4389684302763D-02
    53  5.2000000000000D-01  1.3739712793648D+00 -7.0953016528473D-03
    54  5.3000000000000D-01  1.3700079682682D+00  1.1171162270563D-02
    55  5.4000000000000D-01  1.3646474155246D+00  3.0407282019481D-02
    56  5.5000000000000D-01  1.3578982592018D+00  5.0608053580820D-02
    57  5.6000000000000D-01  1.3497712438495D+00  7.1765809924732D-02
    58  5.7000000000000D-01  1.3402792375551D+00  9.3870144028354D-02
    59  5.8000000000000D-01  1.3294372444861D+00  1.1690783996353D-01
    60  5.9000000000000D-01  1.3172624127138D+00  1.4086281261443D-01
    61  6.0000000000000D-01  1.3037740371301D+00  1.6571605656528D-01
    62  6.1000000000000D-01  1.2889935572816D+00  1.9144560466987D-01
    63  6.2000000000000D-01  1.2729445499568D+00  2.1802649678223D-01
    64  6.3000000000000D-01  1.2556527163839D+00  2.4543075909292D-01
    65  6.4000000000000D-01  1.2371458639062D+00  2.7362739447762D-01
    66  6.5000000000000D-01  1.2174538820273D+00  3.0258238422383D-01
    67  6.6000000000000D-01  1.1966087127303D+00  3.3225870145767D-01
    68  6.7000000000000D-01  1.1746443150010D+00  3.6261633654759D-01
    69  6.8000000000000D-01  1.1515966235010D+00  3.9361233471238D-01
    70  6.9000000000000D-01  1.1275035013606D+00  4.2520084601119D-01
    71  7.0000000000000D-01  1.1024046870831D+00  4.5733318784005D-01
    72  7.1000000000000D-01  1.0763417355729D+00  4.8995792000554D-01
    73  7.2000000000000D-01  1.0493579533269D+00  5.2302093238991D-01
    74  7.3000000000000D-01  1.0214983278473D+00  5.5646554516501D-01
    75  7.4000000000000D-01  9.9280945136200D-01  5.9023262145412D-01
    76  7.5000000000000D-01  9.6333943896066D-01  6.2426069228143D-01
    77  7.6000000000000D-01  9.3313784127973D-01  6.5848609358990D-01
    78  7.7000000000000D-01  9.0225555189311D-01  6.9284311504762D-01
    79  7.8000000000000D-01  8.7074470959014D-01  7.2726416030389D-01
    80  7.9000000000000D-01  8.3865859574594D-01  7.6167991829602D-01
    81  8.0000000000000D-01  8.0605152701290D-01  7.9601954514978D-01
    82  8.1000000000000D-01  7.7297874358514D-01  8.3021085615807D-01
    83  8.2000000000000D-01  7.3949629331024D-01  8.6418052726622D-01
    84  8.3000000000000D-01  7.0566091194456D-01  8.9785430543702D-01
    85  8.4000000000000D-01  6.7152989986923D-01  9.3115722721578D-01
    86  8.5000000000000D-01  6.3716099560429D-01  9.6401384476425D-01
    87  8.6000000000000D-01  6.0261224647733D-01  9.9634845858424D-01
    88  8.7000000000000D-01  5.6794187682099D-01  1.0280853561056D+00
    89  8.8000000000000D-01  5.3320815409066D-01  1.0591490552706D+00
    90  8.9000000000000D-01  4.9846925330853D-01  1.0894645522065D+00
    91  9.0000000000000D-01  4.6378312025498D-01  1.1189575720439D+00
    92  9.1000000000000D-01  4.2920733383970D-01  1.1475548219040D+00
    93  9.2000000000000D-01  3.9479896809695D-01  1.1751842450500D+00
    94  9.3000000000000D-01  3.6061445425744D-01  1.2017752751762D+00
    95  9.4000000000000D-01  3.2670944335766D-01  1.2272590897843D+00
    96  9.5000000000000D-01  2.9313866985271D-01  1.2515688615848D+00
    97  9.6000000000000D-01  2.5995581670240D-01  1.2746400068494D+00
    98  9.7000000000000D-01  2.2721338240275D-01  1.2964104296332D+00
    99  9.8000000000000D-01  1.9496255043445D-01  1.3168207607873D+00
   100  9.9000000000000D-01  1.6325306159839D-01  1.3358145906833D+00
   101  1.0000000000000D+00  1.3213308970402D-01  1.3533386945826D+00
   102  1.0100000000000D+00  1.0164912107069D-01  1.3693432495961D+00
   103  1.0200000000000D+00  7.1845838293959D-02  1.3837820421980D+00
   104  1.0300000000000D+00  4.2766008719420D-02  1.3966126652837D+00
   105  1.0400000000000D+00  1.4450378054157D-02  1.4077967037883D+00
   106  1.0500000000000D+00 -1.3062430467163D-02  1.4172999079171D+00
   107  1.0600000000000D+00 -3.9736010959946D-02  1.4250923530758D+00
   108  1.0700000000000D+00 -6.5536263427662D-02  1.4311485856345D+00
   109  1.0800000000000D+00 -9.0431475594908D-02  1.4354477537023D+00
   110  1.0900000000000D+00 -1.1439239769201D-01  1.4379737221454D+00
   111  1.1000000000000D+00 -1.3739230986911D-01  1.4387151711325D+00
   112  1.1100000000000D+00 -1.5940708194110D-01  1.4376656775527D+00
   113  1.1200000000000D+00 -1.8041522519181D-01  1.4348237787121D+00
   114  1.1300000000000D+00 -2.0039793599083D-01  1.4301930177851D+00
   115  1.1400000000000D+00 -2.1933913100599D-01  1.4237819705620D+00
   116  1.1500000000000D+00 -2.3722547381789D-01  1.4156042530973D+00
   117  1.1600000000000D+00 -2.5404639278032D-01  1.4056785099539D+00
   118  1.1700000000000D+00 -2.6979408999638D-01  1.3940283828017D+00
   119  1.1800000000000D+00 -2.8446354131162D-01  1.3806824592077D+00
   120  1.1900000000000D+00 -2.9805248725477D-01  1.3656742015258D+00
   121  1.2000000000000D+00 -3.1056141489456D-01  1.3490418558882D+00
   122  1.2100000000000D+00 -3.2199353061337D-01  1.3308283413774D+00
   123  1.2200000000000D+00 -3.3235472381711D-01  1.3110811195051D+00
   124  1.2300000000000D+00 -3.4165352165169D-01  1.2898520442471D+00
   125  1.2400000000000D+00 -3.4990103482155D-01  1.2671971929425D+00
   126  1.2500000000000D+00 -3.5711089462828D-01  1.2431766784230D+00
   127  1.2600000000000D+00 -3.6329918138850D-01  1.2178544428334D+00
   128  1.2700000000000D+00 -3.6848434442458D-01  1.1912980336874D+00
   129  1.2800000000000D+00 -3.7268711383604D-01  1.1635783627375D+00
   130  1.2900000000000D+00 -3.7593040429665D-01  1.1347694483225D+00
   131  1.3000000000000D+00 -3.7823921116039D-01  1.1049481419481D+00
   132  1.3100000000000D+00 -3.7964049916203D-01  1.0741938398588D+00
   133  1.3200000000000D+00 -3.8016308403900D-01  1.0425881804542D+00
   134  1.3300000000000D+00 -3.7983750743253D-01  1.0102147284734D+00
   135  1.3400000000000D+00 -3.7869590541774D-01  9.7715864685066D-01
   136  1.3500000000000D+00 -3.7677187106418D-01  9.4350635726170D-01
   137  1.3600000000000D+00 -3.7410031143734D-01  9.0934519039306D-01
   138  1.3700000000000D+00 -3.7071729944569D-01  8.7476302696016D-01
   139  1.3800000000000D+00 -3.6665992099348D-01  8.3984793060844D-01
   140  1.3900000000000D+00 -3.6196611787513D-01  8.0468777377932D-01
   141  1.4000000000000D+00 -3.5667452687447D-01  7.6936985768296D-01
   142  1.4100000000000D+00 -3.5082431554435D-01  7.3398052752161D-01
   143  1.4200000000000D+00 -3.4445501513130D-01  6.9860478410574D-01
   144  1.4300000000000D+00 -3.3760635113508D-01  6.6332589302275D-01
   145  1.4400000000000D+00 -3.3031807197471D-01  6.2822499248410D-01
   146  1.4500000000000D+00 -3.2262977625298D-01  5.9338070102383D-01
   147  1.4600000000000D+00 -3.1458073908177D-01  5.5886872610139D-01
   148  1.4700000000000D+00 -3.0620973796391D-01  5.2476147479573D-01
   149  1.4800000000000D+00 -2.9755487800029D-01  4.9112766459752D-01
   150  1.4900000000000D+00 -2.8865342126030D-01  4.5803195458682D-01
   151  1.5000000000000D+00 -2.7954160341642D-01  4.2553452319033D-01
   152  1.5100000000000D+00 -2.7025449407311D-01  3.9369082947508D-01
   153  1.5200000000000D+00 -2.6082579512775D-01  3.6255112323141D-01
   154  1.5300000000000D+00 -2.5128759732917D-01  3.3215973726918D-01
   155  1.5400000000000D+00 -2.4167052285783D-01  3.0255610972989D-01
   156  1.5500000000000D+00 -2.3200382358634D-01  2.7377555894534D-01
   157  1.5600000000000D+00 -2.2231559312674D-01  2.4585037890958D-01
   158  1.5700000000000D+00 -2.1263289849895D-01  2.1881057200683D-01
   159  1.5800000000000D+00 -2.0298164761376D-01  1.9268335707538D-01
   160  1.5900000000000D+00 -1.9338655571710D-01  1.6749311151280D-01
   161  1.6000000000000D+00 -1.8387112984904D-01  1.4326140262763D-01
   162  1.6100000000000D+00 -1.7445763674696D-01  1.2000692645255D-01
   163  1.6200000000000D+00 -1.6516708281055D-01  9.7745494980208D-02
   164  1.6300000000000D+00 -1.5601919588483D-01  7.6490022870513D-02
   165  1.6400000000000D+00 -1.4703241186014D-01  5.6250527646079D-02
   166  1.6500000000000D+00 -1.3822386561713D-01  3.7034141017056D-02
   167  1.6600000000000D+00 -1.2960938611995D-01  1.8845130695988D-02
   168  1.6700000000000D+00 -1.2120349577440D-01  1.6849330312375D-03
   169  1.6800000000000D+00 -1.1301941396719D-01 -1.4447803718492D-02
   170  1.6900000000000D+00 -1.0506906441074D-01 -2.9557166955134D-02
   171  1.7000000000000D+00 -9.7363085871921D-02 -4.3649919547268D-02
   172  1.7100000000000D+00 -8.9910847941512D-02 -5.6735425841617D-02
   173  1.7200000000000D+00 -8.2720471132133D-02 -6.8825566317855D-02
   174  1.7300000000000D+00 -7.5798848234051D-02 -7.9934652295801D-02
   175  1.7400000000000D+00 -6.9151668239574D-02 -9.0079335640664D-02
   176  1.7500000000000D+00 -6.2783446425220D-02 -9.9278500272746D-02
   177  1.7600000000000D+00 -5.6697557978148D-02 -1.0755314490788D-01
   178  1.7700000000000D+00 -5.0896272421019D-02 -1.1492626716701D-01
   179  1.7800000000000D+00 -4.5380790360828D-02 -1.2142274321625D-01
   180  1.7900000000000D+00 -4.0151283805225D-02 -1.2706919832072D-01
   181  1.8000000000000D+00 -3.5206938970900D-02 -1.3189387208703D-01
   182  1.8100000000000D+00 -3.0546000856239D-02 -1.3592648098173D-01
   183  1.8200000000000D+00 -2.6165819636641D-02 -1.3919807775589D-01
   184  1.8300000000000D+00 -2.2062898820675D-02 -1.4174090784342D-01
   185  1.8400000000000D+00 -1.8232944887268D-02 -1.4358826365161D-01
   186  1.8500000000000D+00 -1.4670918130658D-02 -1.4477433752250D-01
   187  1.8600000000000D+00 -1.1371084533242D-02 -1.4533407395670D-01
   188  1.8700000000000D+00 -8.3270684394027D-03 -1.4530302165238D-01
   189  1.8800000000000D+00 -5.5319057770402D-03 -1.4471718623958D-01
   190  1.8900000000000D+00 -2.9780976693857D-03 -1.4361288399842D-01
   191  1.9000000000000D+00 -6.5766413095990D-04 -1.4202659759687D-01
   192  1.9100000000000D+00  1.4378022705900D-03 -1.3999483404183D-01
   193  1.9200000000000D+00  3.3170830823443D-03 -1.3755398577199D-01
   194  1.9300000000000D+00  4.9892811253740D-03 -1.3474019529762D-01
   195  1.9400000000000D+00  6.4637683201510D-03 -1.3158922383267D-01
   196  1.9500000000000D+00  7.7501344985320D-03 -1.2813632491441D-01
   197  1.9600000000000D+00  8.8581371385725D-03 -1.2441612260223D-01
   198  1.9700000000000D+00  9.7976525567427D-03 -1.2046249599075D-01
   199  1.9800000000000D+00  1.0578628335134D-02 -1.1630846909868D-01
   200  1.9900000000000D+00  1.1211037476164D-02 -1.1198610768865D-01
   201  2.0000000000000D+00  1.1704834239222D-02 -1.0752642271917D-01
   202  2.0100000000000D+00  1.2069911799139D-02 -1.0295928076124D-01
   203  2.0200000000000D+00  1.2316062084199D-02 -9.8313322445362D-02
   204  2.0300000000000D+00  1.2452937453008D-02 -9.3615887676776D-02
   205  2.0400000000000D+00  1.2490014916861D-02 -8.8892949818001D-02
   206  2.0500000000000D+00  1.2436562423228D-02 -8.4169057129829D-02
   207  2.0600000000000D+00  1.2301607645730D-02 -7.9467282792596D-02
   208  2.0700000000000D+00  1.2093909318576D-02 -7.4809183507615D-02
   209  2.0800000000000D+00  1.1821930820350D-02 -7.0214765618184D-02
   210  2.0900000000000D+00  1.1493816700118D-02 -6.5702460826168D-02
   211  2.1000000000000D+00  1.1117371435267D-02 -6.1289109150377D-02
   212  2.1100000000000D+00  1.0700040999602D-02 -5.6989950816181D-02
   213  2.1200000000000D+00  1.0248897060373D-02 -5.2818626395410D-02
   214  2.1300000000000D+00  9.7706235092130D-03 -4.8787184177107D-02
   215  2.1400000000000D+00  9.2715059735562D-03 -4.4906096616144D-02
   216  2.1500000000000D+00  8.7574234893294D-03 -4.1184283269739D-02
   217  2.1600000000000D+00  8.2338428581144D-03 -3.7629141666948D-02
   218  2.1700000000000D+00  7.7058155124041D-03 -3.4246585462200D-02
   219  2.1800000000000D+00  7.1779763997501D-03 -3.1041088330481D-02
   220  2.1900000000000D+00  6.6545456031937D-03 -2.8015735538818D-02
   221  2.2000000000000D+00  6.1393318038568D-03 -2.5172280516748D-02
   222  2.2100000000000D+00  5.6357379061222D-03 -2.2511207198660D-02
   223  2.2200000000000D+00  5.1467688051833D-03 -2.0031797931241D-02
   224  2.2300000000000D+00  4.6750406860665D-03 -1.7732205166134D-02
   225  2.2400000000000D+00  4.2227923279710D-03 -1.5609528017783D-02
   226  2.2500000000000D+00  3.7918978788821D-03 -1.3659892148346D-02
   227  2.2600000000000D+00  3.3838809386889D-03 -1.1878532431356D-02
   228  2.2700000000000D+00  2.9999301605106D-03 -1.0259878658196D-02
   229  2.2800000000000D+00  2.6409157818930D-03 -8.7976427931368D-03
   230  2.2900000000000D+00  2.3074071647792D-03 -7.4849076865873D-03
   231  2.3000000000000D+00  1.9996911749192D-03 -6.3142166136679D-03
   232  2.3100000000000D+00  1.7177911221555D-03 -5.2776630598924D-03
   233  2.3200000000000D+00  1.4614861686657D-03 -4.3669799545329D-03
   234  2.3300000000000D+00  1.2303309918595D-03 -3.5736278840461D-03
   235  2.3400000000000D+00  1.0236756619328D-03 -2.8888823391427D-03
   236  2.3500000000000D+00  8.4068525892275D-04 -2.3039178665753D-03
   237  2.3600000000000D+00  6.8035939282099D-04 -1.8098902037455D-03
   238  2.3700000000000D+00  5.4155142500431D-04 -1.3980155730713D-03
   239  2.3800000000000D+00  4.2298679266698D-04 -1.0596449292932D-03
   240  2.3900000000000D+00  3.2328099077905D-04 -7.8633537496885D-04
   241  2.4000000000000D+00  2.4095663304650D-04 -5.6991664926048D-04
   242  2.4100000000000D+00  1.7446177750962D-04 -4.0257936564790D-04
   243  2.4200000000000D+00  1.2217703379891D-04 -2.7684510390581D-04
   244  2.4300000000000D+00  8.2432280953957D-05 -1.8564936080739D-04
   245  2.4400000000000D+00  5.3433113581449D-05 -1.2216269390141D-04
   246  2.4500000000000D+00  3.3588124777644D-05 -8.0874313943572D-05
   247  2.4600000000000D+00  2.1292822172967D-05 -5.6851502488793D-05
   248  2.4700000000000D+00  1.5188144356437D-05 -4.6356195187131D-05
   249  2.4800000000000D+00  1.2657480444022D-05 -4.2410767141225D-05
   250  2.4900000000000D+00  1.1188432199161D-05 -3.8620189898869D-05
   251  2.5000000000000D+00  8.2221320778427D-06 -2.8537494871500D-05
   252  2.5100000000000D+00  4.3094201959178D-06 -1.4913927539832D-05
   253  2.5200000000000D+00  6.2575380166081D-07 -2.1507578967458D-06
   254  2.5300000000000D+00 -9.5616182012860D-07  3.3966860197220D-06
   255  2.5400000000000D+00 -9.6682349419645D-07  3.4374619366087D-06
   256  2.5500000000000D+00 -2.0745124877103D-07  7.3768325119891D-07
   257  2.5600000000000D+00  1.8656398146846D-07 -6.7294254347424D-07
   258  2.5700000000000D+00  2.2008441741666D-07 -7.9554345045070D-07
   259  2.5800000000000D+00  6.2485438283834D-08 -2.2627247374430D-07
   260  2.5900000000000D+00 -2.1956612103962D-08  7.5825097112142D-08
   261  2.6000000000000D+00 -2.9817026836746D-08  1.0297030091831D-07
   262  2.6100000000000D+00 -1.1251717689614D-08  3.8856749960045D-08
   263  2.6200000000000D+00  0.0000000000000D+00  0.0000000000000D+00
   264  2.6300000000000D+00  0.0000000000000D+00  0.0000000000000D+00
   265  2.6400000000000D+00  0.0000000000000D+00  0.0000000000000D+00
   266  2.6500000000000D+00  0.0000000000000D+00  0.0000000000000D+00
   267  2.6600000000000D+00  0.0000000000000D+00  0.0000000000000D+00
   268  2.6700000000000D+00  0.0000000000000D+00  0.0000000000000D+00
   269  2.6800000000000D+00  0.0000000000000D+00  0.0000000000000D+00
   270  2.6900000000000D+00  0.0000000000000D+00  0.0000000000000D+00
   271  2.7000000000000D+00  0.0000000000000D+00  0.0000000000000D+00
   272  2.7100000000000D+00  0.0000000000000D+00  0.0000000000000D+00
   273  2.7200000000000D+00  0.0000000000000D+00  0.0000000000000D+00
   274  2.7300000000000D+00  0.0000000000000D+00  0.0000000000000D+00
   275  2.7400000000000D+00  0.0000000000000D+00  0.0000000000000D+00
   276  2.7500000000000D+00  0.0000000000000D+00  0.0000000000000D+00
   277  2.7600000000000D+00  0.0000000000000D+00  0.0000000000000D+00
   278  2.7700000000000D+00  0.0000000000000D+00  0.0000000000000D+00
   279  2.7800000000000D+00  0.0000000000000D+00  0.0000000000000D+00
   280  2.7900000000000D+00  0.0000000000000D+00  0.0000000000000D+00
   281  2.8000000000000D+00  0.0000000000000D+00  0.0000000000000D+00
   282  2.8100000000000D+00  0.0000000000000D+00  0.0000000000000D+00
   283  2.8200000000000D+00  0.0000000000000D+00  0.0000000000000D+00
   284  2.8300000000000D+00  0.0000000000000D+00  0.0000000000000D+00
   285  2.8400000000000D+00  0.0000000000000D+00  0.0000000000000D+00
   286  2.8500000000000D+00  0.0000000000000D+00  0.0000000000000D+00
   287  2.8600000000000D+00  0.0000000000000D+00  0.0000000000000D+00
   288  2.8700000000000D+00  0.0000000000000D+00  0.0000000000000D+00
   289  2.8800000000000D+00  0.0000000000000D+00  0.0000000000000D+00
   290  2.8900000000000D+00  0.0000000000000D+00  0.0000000000000D+00
   291  2.9000000000000D+00  0.0000000000000D+00  0.0000000000000D+00
   292  2.9100000000000D+00  0.0000000000000D+00  0.0000000000000D+00
   293  2.9200000000000D+00  0.0000000000000D+00  0.0000000000000D+00
   294  2.9300000000000D+00  0.0000000000000D+00  0.0000000000000D+00
   295  2.9400000000000D+00  0.0000000000000D+00  0.0000000000000D+00
   296  2.9500000000000D+00  0.0000000000000D+00  0.0000000000000D+00
   297  2.9600000000000D+00  0.0000000000000D+00  0.0000000000000D+00
   298  2.9700000000000D+00  0.0000000000000D+00  0.0000000000000D+00
   299  2.9800000000000D+00  0.0000000000000D+00  0.0000000000000D+00
   300  2.9900000000000D+00  0.0000000000000D+00  0.0000000000000D+00
   301  3.0000000000000D+00  0.0000000000000D+00  0.0000000000000D+00
   302  3.0100000000000D+00  0.0000000000000D+00  0.0000000000000D+00
   303  3.0200000000000D+00  0.0000000000000D+00  0.0000000000000D+00
   304  3.0300000000000D+00  0.0000000000000D+00  0.0000000000000D+00
   305  3.0400000000000D+00  0.0000000000000D+00  0.0000000000000D+00
   306  3.0500000000000D+00  0.0000000000000D+00  0.0000000000000D+00
   307  3.0600000000000D+00  0.0000000000000D+00  0.0000000000000D+00
   308  3.0700000000000D+00  0.0000000000000D+00  0.0000000000000D+00
   309  3.0800000000000D+00  0.0000000000000D+00  0.0000000000000D+00
   310  3.0900000000000D+00  0.0000000000000D+00  0.0000000000000D+00
   311  3.1000000000000D+00  0.0000000000000D+00  0.0000000000000D+00
   312  3.1100000000000D+00  0.0000000000000D+00  0.0000000000000D+00
   313  3.1200000000000D+00  0.0000000000000D+00  0.0000000000000D+00
   314  3.1300000000000D+00  0.0000000000000D+00  0.0000000000000D+00
   315  3.1400000000000D+00  0.0000000000000D+00  0.0000000000000D+00
   316  3.1500000000000D+00  0.0000000000000D+00  0.0000000000000D+00
   317  3.1600000000000D+00  0.0000000000000D+00  0.0000000000000D+00
   318  3.1700000000000D+00  0.0000000000000D+00  0.0000000000000D+00
   319  3.1800000000000D+00  0.0000000000000D+00  0.0000000000000D+00
   320  3.1900000000000D+00  0.0000000000000D+00  0.0000000000000D+00
   321  3.2000000000000D+00  0.0000000000000D+00  0.0000000000000D+00
   322  3.2100000000000D+00  0.0000000000000D+00  0.0000000000000D+00
   323  3.2200000000000D+00  0.0000000000000D+00  0.0000000000000D+00
   324  3.2300000000000D+00  0.0000000000000D+00  0.0000000000000D+00
   325  3.2400000000000D+00  0.0000000000000D+00  0.0000000000000D+00
   326  3.2500000000000D+00  0.0000000000000D+00  0.0000000000000D+00
   327  3.2600000000000D+00  0.0000000000000D+00  0.0000000000000D+00
   328  3.2700000000000D+00  0.0000000000000D+00  0.0000000000000D+00
   329  3.2800000000000D+00  0.0000000000000D+00  0.0000000000000D+00
   330  3.2900000000000D+00  0.0000000000000D+00  0.0000000000000D+00
   331  3.3000000000000D+00  0.0000000000000D+00  0.0000000000000D+00
   332  3.3100000000000D+00  0.0000000000000D+00  0.0000000000000D+00
   333  3.3200000000000D+00  0.0000000000000D+00  0.0000000000000D+00
   334  3.3300000000000D+00  0.0000000000000D+00  0.0000000000000D+00
   335  3.3400000000000D+00  0.0000000000000D+00  0.0000000000000D+00
   336  3.3500000000000D+00  0.0000000000000D+00  0.0000000000000D+00
   337  3.3600000000000D+00  0.0000000000000D+00  0.0000000000000D+00
   338  3.3700000000000D+00  0.0000000000000D+00  0.0000000000000D+00
   339  3.3800000000000D+00  0.0000000000000D+00  0.0000000000000D+00
   340  3.3900000000000D+00  0.0000000000000D+00  0.0000000000000D+00
   341  3.4000000000000D+00  0.0000000000000D+00  0.0000000000000D+00
   342  3.4100000000000D+00  0.0000000000000D+00  0.0000000000000D+00
   343  3.4200000000000D+00  0.0000000000000D+00  0.0000000000000D+00
   344  3.4300000000000D+00  0.0000000000000D+00  0.0000000000000D+00
   345  3.4400000000000D+00  0.0000000000000D+00  0.0000000000000D+00
   346  3.4500000000000D+00  0.0000000000000D+00  0.0000000000000D+00
   347  3.4600000000000D+00  0.0000000000000D+00  0.0000000000000D+00
   348  3.4700000000000D+00  0.0000000000000D+00  0.0000000000000D+00
   349  3.4800000000000D+00  0.0000000000000D+00  0.0000000000000D+00
   350  3.4900000000000D+00  0.0000000000000D+00  0.0000000000000D+00
   351  3.5000000000000D+00  0.0000000000000D+00  0.0000000000000D+00
   352  3.5100000000000D+00  0.0000000000000D+00  0.0000000000000D+00
   353  3.5200000000000D+00  0.0000000000000D+00  0.0000000000000D+00
   354  3.5300000000000D+00  0.0000000000000D+00  0.0000000000000D+00
   355  3.5400000000000D+00  0.0000000000000D+00  0.0000000000000D+00
   356  3.5500000000000D+00  0.0000000000000D+00  0.0000000000000D+00
   357  3.5600000000000D+00  0.0000000000000D+00  0.0000000000000D+00
   358  3.5700000000000D+00  0.0000000000000D+00  0.0000000000000D+00
   359  3.5800000000000D+00  0.0000000000000D+00  0.0000000000000D+00
   360  3.5900000000000D+00  0.0000000000000D+00  0.0000000000000D+00
   361  3.6000000000000D+00  0.0000000000000D+00  0.0000000000000D+00
   362  3.6100000000000D+00  0.0000000000000D+00  0.0000000000000D+00
   363  3.6200000000000D+00  0.0000000000000D+00  0.0000000000000D+00
   364  3.6300000000000D+00  0.0000000000000D+00  0.0000000000000D+00
   365  3.6400000000000D+00  0.0000000000000D+00  0.0000000000000D+00
   366  3.6500000000000D+00  0.0000000000000D+00  0.0000000000000D+00
   367  3.6600000000000D+00  0.0000000000000D+00  0.0000000000000D+00
   368  3.6700000000000D+00  0.0000000000000D+00  0.0000000000000D+00
   369  3.6800000000000D+00  0.0000000000000D+00  0.0000000000000D+00
   370  3.6900000000000D+00  0.0000000000000D+00  0.0000000000000D+00
   371  3.7000000000000D+00  0.0000000000000D+00  0.0000000000000D+00
   372  3.7100000000000D+00  0.0000000000000D+00  0.0000000000000D+00
   373  3.7200000000000D+00  0.0000000000000D+00  0.0000000000000D+00
   374  3.7300000000000D+00  0.0000000000000D+00  0.0000000000000D+00
   375  3.7400000000000D+00  0.0000000000000D+00  0.0000000000000D+00
   376  3.7500000000000D+00  0.0000000000000D+00  0.0000000000000D+00
   377  3.7600000000000D+00  0.0000000000000D+00  0.0000000000000D+00
   378  3.7700000000000D+00  0.0000000000000D+00  0.0000000000000D+00
   379  3.7800000000000D+00  0.0000000000000D+00  0.0000000000000D+00
   380  3.7900000000000D+00  0.0000000000000D+00  0.0000000000000D+00
   381  3.8000000000000D+00  0.0000000000000D+00  0.0000000000000D+00
   382  3.8100000000000D+00  0.0000000000000D+00  0.0000000000000D+00
   383  3.8200000000000D+00  0.0000000000000D+00  0.0000000000000D+00
   384  3.8300000000000D+00  0.0000000000000D+00  0.0000000000000D+00
   385  3.8400000000000D+00  0.0000000000000D+00  0.0000000000000D+00
   386  3.8500000000000D+00  0.0000000000000D+00  0.0000000000000D+00
   387  3.8600000000000D+00  0.0000000000000D+00  0.0000000000000D+00
   388  3.8700000000000D+00  0.0000000000000D+00  0.0000000000000D+00
   389  3.8800000000000D+00  0.0000000000000D+00  0.0000000000000D+00
   390  3.8900000000000D+00  0.0000000000000D+00  0.0000000000000D+00
   391  3.9000000000000D+00  0.0000000000000D+00  0.0000000000000D+00
   392  3.9100000000000D+00  0.0000000000000D+00  0.0000000000000D+00
   393  3.9200000000000D+00  0.0000000000000D+00  0.0000000000000D+00
   394  3.9300000000000D+00  0.0000000000000D+00  0.0000000000000D+00
   395  3.9400000000000D+00  0.0000000000000D+00  0.0000000000000D+00
   396  3.9500000000000D+00  0.0000000000000D+00  0.0000000000000D+00
   397  3.9600000000000D+00  0.0000000000000D+00  0.0000000000000D+00
   398  3.9700000000000D+00  0.0000000000000D+00  0.0000000000000D+00
   399  3.9800000000000D+00  0.0000000000000D+00  0.0000000000000D+00
   400  3.9900000000000D+00  0.0000000000000D+00  0.0000000000000D+00
   401  4.0000000000000D+00  0.0000000000000D+00  0.0000000000000D+00
   402  4.0100000000000D+00  0.0000000000000D+00  0.0000000000000D+00
   403  4.0200000000000D+00  0.0000000000000D+00  0.0000000000000D+00
   404  4.0300000000000D+00  0.0000000000000D+00  0.0000000000000D+00
   405  4.0400000000000D+00  0.0000000000000D+00  0.0000000000000D+00
   406  4.0500000000000D+00  0.0000000000000D+00  0.0000000000000D+00
   407  4.0600000000000D+00  0.0000000000000D+00  0.0000000000000D+00
   408  4.0700000000000D+00  0.0000000000000D+00  0.0000000000000D+00
   409  4.0800000000000D+00  0.0000000000000D+00  0.0000000000000D+00
   410  4.0900000000000D+00  0.0000000000000D+00  0.0000000000000D+00
   411  4.1000000000000D+00  0.0000000000000D+00  0.0000000000000D+00
   412  4.1100000000000D+00  0.0000000000000D+00  0.0000000000000D+00
   413  4.1200000000000D+00  0.0000000000000D+00  0.0000000000000D+00
   414  4.1300000000000D+00  0.0000000000000D+00  0.0000000000000D+00
   415  4.1400000000000D+00  0.0000000000000D+00  0.0000000000000D+00
   416  4.1500000000000D+00  0.0000000000000D+00  0.0000000000000D+00
   417  4.1600000000000D+00  0.0000000000000D+00  0.0000000000000D+00
   418  4.1700000000000D+00  0.0000000000000D+00  0.0000000000000D+00
   419  4.1800000000000D+00  0.0000000000000D+00  0.0000000000000D+00
   420  4.1900000000000D+00  0.0000000000000D+00  0.0000000000000D+00
   421  4.2000000000000D+00  0.0000000000000D+00  0.0000000000000D+00
   422  4.2100000000000D+00  0.0000000000000D+00  0.0000000000000D+00