<UPF version="2.0.1">
  <PP_INFO>

 This pseudopotential file has been produced using the code
 ONCVPSP  (Optimized Norm-Conservinng Vanderbilt PSeudopotential)
 fully-relativistic version 3.3.1 12/12/2017 by D. R. Hamann
 The code is available through a link at URL www.mat-simresearch.com.
 Documentation with the package provides a full discription of the
 input data below.


 While it is not required under the terms of the GNU GPL, it is
 suggested that you cite D. R. Hamann, Phys. Rev. B 88, 085117 (2013)
 in any publication using these pseudopotentials.

    <PP_INPUTFILE>
# ATOM AND REFERENCE CONFIGURATION
# atsym  z   nc   nv     iexc    psfile
  He  2.00    0    1       4      upf
#
#   n    l    f        energy (Ha)
    1    0    2.00
#
# PSEUDOPOTENTIAL AND OPTIMIZATION
# lmax
    0
#
#   l,   rc,     ep,   ncon, nbas, qcut
    0   1.99006  -0.57931    5    8   7.17231
#
# LOCAL POTENTIAL
# lloc, lpopt,  rc(5),   dvloc0
    4    5   0.89489      0.00000
#
# VANDERBILT-KLEINMAN-BYLANDER PROJECTORs
# l, nproj, debl
    0    2   1.34022
#
# MODEL CORE CHARGE
# icmod, fcfact, rcfact
    0   0.00000   0.00000
#
# LOG DERIVATIVE ANALYSIS
# epsh1, epsh2, depsh
   -5.00    3.00    0.02
#
# OUTPUT GRID
# rlmax, drl
    6.00    0.01
#
# TEST CONFIGURATIONS
# ncnf
    0
# nvcnf
#   n    l    f
    </PP_INPUTFILE>
  </PP_INFO>
  <!--                               -->
  <!-- END OF HUMAN READABLE SECTION -->
  <!--                               -->
    <PP_HEADER
       generated="Generated using ONCVPSP code by D. R. Hamann"
       author="anonymous"
       date="200721"
       comment=""
       element="He"
       pseudo_type="NC"
       relativistic="full"
       is_ultrasoft="F"
       is_paw="F"
       is_coulomb="F"
       has_so="T"
       has_wfc="F"
       has_gipaw="F"
       core_correction="F"
       functional="PBE"
       z_valence="    2.00"
       total_psenergy="  -5.57582592140E+00"
       rho_cutoff="   7.21000000000E+00"
       l_max="0"
       l_local="-1"
       mesh_size="   722"
       number_of_wfc="1"
       number_of_proj="2"/>
 <PP_MESH>
   <PP_R type="real"  size=" 722" columns="8">
    0.0000    0.0100    0.0200    0.0300    0.0400    0.0500    0.0600    0.0700
    0.0800    0.0900    0.1000    0.1100    0.1200    0.1300    0.1400    0.1500
    0.1600    0.1700    0.1800    0.1900    0.2000    0.2100    0.2200    0.2300
    0.2400    0.2500    0.2600    0.2700    0.2800    0.2900    0.3000    0.3100
    0.3200    0.3300    0.3400    0.3500    0.3600    0.3700    0.3800    0.3900
    0.4000    0.4100    0.4200    0.4300    0.4400    0.4500    0.4600    0.4700
    0.4800    0.4900    0.5000    0.5100    0.5200    0.5300    0.5400    0.5500
    0.5600    0.5700    0.5800    0.5900    0.6000    0.6100    0.6200    0.6300
    0.6400    0.6500    0.6600    0.6700    0.6800    0.6900    0.7000    0.7100
    0.7200    0.7300    0.7400    0.7500    0.7600    0.7700    0.7800    0.7900
    0.8000    0.8100    0.8200    0.8300    0.8400    0.8500    0.8600    0.8700
    0.8800    0.8900    0.9000    0.9100    0.9200    0.9300    0.9400    0.9500
    0.9600    0.9700    0.9800    0.9900    1.0000    1.0100    1.0200    1.0300
    1.0400    1.0500    1.0600    1.0700    1.0800    1.0900    1.1000    1.1100
    1.1200    1.1300    1.1400    1.1500    1.1600    1.1700    1.1800    1.1900
    1.2000    1.2100    1.2200    1.2300    1.2400    1.2500    1.2600    1.2700
    1.2800    1.2900    1.3000    1.3100    1.3200    1.3300    1.3400    1.3500
    1.3600    1.3700    1.3800    1.3900    1.4000    1.4100    1.4200    1.4300
    1.4400    1.4500    1.4600    1.4700    1.4800    1.4900    1.5000    1.5100
    1.5200    1.5300    1.5400    1.5500    1.5600    1.5700    1.5800    1.5900
    1.6000    1.6100    1.6200    1.6300    1.6400    1.6500    1.6600    1.6700
    1.6800    1.6900    1.7000    1.7100    1.7200    1.7300    1.7400    1.7500
    1.7600    1.7700    1.7800    1.7900    1.8000    1.8100    1.8200    1.8300
    1.8400    1.8500    1.8600    1.8700    1.8800    1.8900    1.9000    1.9100
    1.9200    1.9300    1.9400    1.9500    1.9600    1.9700    1.9800    1.9900
    2.0000    2.0100    2.0200    2.0300    2.0400    2.0500    2.0600    2.0700
    2.0800    2.0900    2.1000    2.1100    2.1200    2.1300    2.1400    2.1500
    2.1600    2.1700    2.1800    2.1900    2.2000    2.2100    2.2200    2.2300
    2.2400    2.2500    2.2600    2.2700    2.2800    2.2900    2.3000    2.3100
    2.3200    2.3300    2.3400    2.3500    2.3600    2.3700    2.3800    2.3900
    2.4000    2.4100    2.4200    2.4300    2.4400    2.4500    2.4600    2.4700
    2.4800    2.4900    2.5000    2.5100    2.5200    2.5300    2.5400    2.5500
    2.5600    2.5700    2.5800    2.5900    2.6000    2.6100    2.6200    2.6300
    2.6400    2.6500    2.6600    2.6700    2.6800    2.6900    2.7000    2.7100
    2.7200    2.7300    2.7400    2.7500    2.7600    2.7700    2.7800    2.7900
    2.8000    2.8100    2.8200    2.8300    2.8400    2.8500    2.8600    2.8700
    2.8800    2.8900    2.9000    2.9100    2.9200    2.9300    2.9400    2.9500
    2.9600    2.9700    2.9800    2.9900    3.0000    3.0100    3.0200    3.0300
    3.0400    3.0500    3.0600    3.0700    3.0800    3.0900    3.1000    3.1100
    3.1200    3.1300    3.1400    3.1500    3.1600    3.1700    3.1800    3.1900
    3.2000    3.2100    3.2200    3.2300    3.2400    3.2500    3.2600    3.2700
    3.2800    3.2900    3.3000    3.3100    3.3200    3.3300    3.3400    3.3500
    3.3600    3.3700    3.3800    3.3900    3.4000    3.4100    3.4200    3.4300
    3.4400    3.4500    3.4600    3.4700    3.4800    3.4900    3.5000    3.5100
    3.5200    3.5300    3.5400    3.5500    3.5600    3.5700    3.5800    3.5900
    3.6000    3.6100    3.6200    3.6300    3.6400    3.6500    3.6600    3.6700
    3.6800    3.6900    3.7000    3.7100    3.7200    3.7300    3.7400    3.7500
    3.7600    3.7700    3.7800    3.7900    3.8000    3.8100    3.8200    3.8300
    3.8400    3.8500    3.8600    3.8700    3.8800    3.8900    3.9000    3.9100
    3.9200    3.9300    3.9400    3.9500    3.9600    3.9700    3.9800    3.9900
    4.0000    4.0100    4.0200    4.0300    4.0400    4.0500    4.0600    4.0700
    4.0800    4.0900    4.1000    4.1100    4.1200    4.1300    4.1400    4.1500
    4.1600    4.1700    4.1800    4.1900    4.2000    4.2100    4.2200    4.2300
    4.2400    4.2500    4.2600    4.2700    4.2800    4.2900    4.3000    4.3100
    4.3200    4.3300    4.3400    4.3500    4.3600    4.3700    4.3800    4.3900
    4.4000    4.4100    4.4200    4.4300    4.4400    4.4500    4.4600    4.4700
    4.4800    4.4900    4.5000    4.5100    4.5200    4.5300    4.5400    4.5500
    4.5600    4.5700    4.5800    4.5900    4.6000    4.6100    4.6200    4.6300
    4.6400    4.6500    4.6600    4.6700    4.6800    4.6900    4.7000    4.7100
    4.7200    4.7300    4.7400    4.7500    4.7600    4.7700    4.7800    4.7900
    4.8000    4.8100    4.8200    4.8300    4.8400    4.8500    4.8600    4.8700
    4.8800    4.8900    4.9000    4.9100    4.9200    4.9300    4.9400    4.9500
    4.9600    4.9700    4.9800    4.9900    5.0000    5.0100    5.0200    5.0300
    5.0400    5.0500    5.0600    5.0700    5.0800    5.0900    5.1000    5.1100
    5.1200    5.1300    5.1400    5.1500    5.1600    5.1700    5.1800    5.1900
    5.2000    5.2100    5.2200    5.2300    5.2400    5.2500    5.2600    5.2700
    5.2800    5.2900    5.3000    5.3100    5.3200    5.3300    5.3400    5.3500
    5.3600    5.3700    5.3800    5.3900    5.4000    5.4100    5.4200    5.4300
    5.4400    5.4500    5.4600    5.4700    5.4800    5.4900    5.5000    5.5100
    5.5200    5.5300    5.5400    5.5500    5.5600    5.5700    5.5800    5.5900
    5.6000    5.6100    5.6200    5.6300    5.6400    5.6500    5.6600    5.6700
    5.6800    5.6900    5.7000    5.7100    5.7200    5.7300    5.7400    5.7500
    5.7600    5.7700    5.7800    5.7900    5.8000    5.8100    5.8200    5.8300
    5.8400    5.8500    5.8600    5.8700    5.8800    5.8900    5.9000    5.9100
    5.9200    5.9300    5.9400    5.9500    5.9600    5.9700    5.9800    5.9900
    6.0000    6.0100    6.0200    6.0300    6.0400    6.0500    6.0600    6.0700
    6.0800    6.0900    6.1000    6.1100    6.1200    6.1300    6.1400    6.1500
    6.1600    6.1700    6.1800    6.1900    6.2000    6.2100    6.2200    6.2300
    6.2400    6.2500    6.2600    6.2700    6.2800    6.2900    6.3000    6.3100
    6.3200    6.3300    6.3400    6.3500    6.3600    6.3700    6.3800    6.3900
    6.4000    6.4100    6.4200    6.4300    6.4400    6.4500    6.4600    6.4700
    6.4800    6.4900    6.5000    6.5100    6.5200    6.5300    6.5400    6.5500
    6.5600    6.5700    6.5800    6.5900    6.6000    6.6100    6.6200    6.6300
    6.6400    6.6500    6.6600    6.6700    6.6800    6.6900    6.7000    6.7100
    6.7200    6.7300    6.7400    6.7500    6.7600    6.7700    6.7800    6.7900
    6.8000    6.8100    6.8200    6.8300    6.8400    6.8500    6.8600    6.8700
    6.8800    6.8900    6.9000    6.9100    6.9200    6.9300    6.9400    6.9500
    6.9600    6.9700    6.9800    6.9900    7.0000    7.0100    7.0200    7.0300
    7.0400    7.0500    7.0600    7.0700    7.0800    7.0900    7.1000    7.1100
    7.1200    7.1300    7.1400    7.1500    7.1600    7.1700    7.1800    7.1900
    7.2000    7.2100
   </PP_R>
   <PP_RAB type="real"  size=" 722" columns="8">
    0.0100    0.0100    0.0100    0.0100    0.0100    0.0100    0.0100    0.0100
    0.0100    0.0100    0.0100    0.0100    0.0100    0.0100    0.0100    0.0100
    0.0100    0.0100    0.0100    0.0100    0.0100    0.0100    0.0100    0.0100
    0.0100    0.0100    0.0100    0.0100    0.0100    0.0100    0.0100    0.0100
    0.0100    0.0100    0.0100    0.0100    0.0100    0.0100    0.0100    0.0100
    0.0100    0.0100    0.0100    0.0100    0.0100    0.0100    0.0100    0.0100
    0.0100    0.0100    0.0100    0.0100    0.0100    0.0100    0.0100    0.0100
    0.0100    0.0100    0.0100    0.0100    0.0100    0.0100    0.0100    0.0100
    0.0100    0.0100    0.0100    0.0100    0.0100    0.0100    0.0100    0.0100
    0.0100    0.0100    0.0100    0.0100    0.0100    0.0100    0.0100    0.0100
    0.0100    0.0100    0.0100    0.0100    0.0100    0.0100    0.0100    0.0100
    0.0100    0.0100    0.0100    0.0100    0.0100    0.0100    0.0100    0.0100
    0.0100    0.0100    0.0100    0.0100    0.0100    0.0100    0.0100    0.0100
    0.0100    0.0100    0.0100    0.0100    0.0100    0.0100    0.0100    0.0100
    0.0100    0.0100    0.0100    0.0100    0.0100    0.0100    0.0100    0.0100
    0.0100    0.0100    0.0100    0.0100    0.0100    0.0100    0.0100    0.0100
    0.0100    0.0100    0.0100    0.0100    0.0100    0.0100    0.0100    0.0100
    0.0100    0.0100    0.0100    0.0100    0.0100    0.0100    0.0100    0.0100
    0.0100    0.0100    0.0100    0.0100    0.0100    0.0100    0.0100    0.0100
    0.0100    0.0100    0.0100    0.0100    0.0100    0.0100    0.0100    0.0100
    0.0100    0.0100    0.0100    0.0100    0.0100    0.0100    0.0100    0.0100
    0.0100    0.0100    0.0100    0.0100    0.0100    0.0100    0.0100    0.0100
    0.0100    0.0100    0.0100    0.0100    0.0100    0.0100    0.0100    0.0100
    0.0100    0.0100    0.0100    0.0100    0.0100    0.0100    0.0100    0.0100
    0.0100    0.0100    0.0100    0.0100    0.0100    0.0100    0.0100    0.0100
    0.0100    0.0100    0.0100    0.0100    0.0100    0.0100    0.0100    0.0100
    0.0100    0.0100    0.0100    0.0100    0.0100    0.0100    0.0100    0.0100
    0.0100    0.0100    0.0100    0.0100    0.0100    0.0100    0.0100    0.0100
    0.0100    0.0100    0.0100    0.0100    0.0100    0.0100    0.0100    0.0100
    0.0100    0.0100    0.0100    0.0100    0.0100    0.0100    0.0100    0.0100
    0.0100    0.0100    0.0100    0.0100    0.0100    0.0100    0.0100    0.0100
    0.0100    0.0100    0.0100    0.0100    0.0100    0.0100    0.0100    0.0100
    0.0100    0.0100    0.0100    0.0100    0.0100    0.0100    0.0100    0.0100
    0.0100    0.0100    0.0100    0.0100    0.0100    0.0100    0.0100    0.0100
    0.0100    0.0100    0.0100    0.0100    0.0100    0.0100    0.0100    0.0100
    0.0100    0.0100    0.0100    0.0100    0.0100    0.0100    0.0100    0.0100
    0.0100    0.0100    0.0100    0.0100    0.0100    0.0100    0.0100    0.0100
    0.0100    0.0100    0.0100    0.0100    0.0100    0.0100    0.0100    0.0100
    0.0100    0.0100    0.0100    0.0100    0.0100    0.0100    0.0100    0.0100
    0.0100    0.0100    0.0100    0.0100    0.0100    0.0100    0.0100    0.0100
    0.0100    0.0100    0.0100    0.0100    0.0100    0.0100    0.0100    0.0100
    0.0100    0.0100    0.0100    0.0100    0.0100    0.0100    0.0100    0.0100
    0.0100    0.0100    0.0100    0.0100    0.0100    0.0100    0.0100    0.0100
    0.0100    0.0100    0.0100    0.0100    0.0100    0.0100    0.0100    0.0100
    0.0100    0.0100    0.0100    0.0100    0.0100    0.0100    0.0100    0.0100
    0.0100    0.0100    0.0100    0.0100    0.0100    0.0100    0.0100    0.0100
    0.0100    0.0100    0.0100    0.0100    0.0100    0.0100    0.0100    0.0100
    0.0100    0.0100    0.0100    0.0100    0.0100    0.0100    0.0100    0.0100
    0.0100    0.0100    0.0100    0.0100    0.0100    0.0100    0.0100    0.0100
    0.0100    0.0100    0.0100    0.0100    0.0100    0.0100    0.0100    0.0100
    0.0100    0.0100    0.0100    0.0100    0.0100    0.0100    0.0100    0.0100
    0.0100    0.0100    0.0100    0.0100    0.0100    0.0100    0.0100    0.0100
    0.0100    0.0100    0.0100    0.0100    0.0100    0.0100    0.0100    0.0100
    0.0100    0.0100    0.0100    0.0100    0.0100    0.0100    0.0100    0.0100
    0.0100    0.0100    0.0100    0.0100    0.0100    0.0100    0.0100    0.0100
    0.0100    0.0100    0.0100    0.0100    0.0100    0.0100    0.0100    0.0100
    0.0100    0.0100    0.0100    0.0100    0.0100    0.0100    0.0100    0.0100
    0.0100    0.0100    0.0100    0.0100    0.0100    0.0100    0.0100    0.0100
    0.0100    0.0100    0.0100    0.0100    0.0100    0.0100    0.0100    0.0100
    0.0100    0.0100    0.0100    0.0100    0.0100    0.0100    0.0100    0.0100
    0.0100    0.0100    0.0100    0.0100    0.0100    0.0100    0.0100    0.0100
    0.0100    0.0100    0.0100    0.0100    0.0100    0.0100    0.0100    0.0100
    0.0100    0.0100    0.0100    0.0100    0.0100    0.0100    0.0100    0.0100
    0.0100    0.0100    0.0100    0.0100    0.0100    0.0100    0.0100    0.0100
    0.0100    0.0100    0.0100    0.0100    0.0100    0.0100    0.0100    0.0100
    0.0100    0.0100    0.0100    0.0100    0.0100    0.0100    0.0100    0.0100
    0.0100    0.0100    0.0100    0.0100    0.0100    0.0100    0.0100    0.0100
    0.0100    0.0100    0.0100    0.0100    0.0100    0.0100    0.0100    0.0100
    0.0100    0.0100    0.0100    0.0100    0.0100    0.0100    0.0100    0.0100
    0.0100    0.0100    0.0100    0.0100    0.0100    0.0100    0.0100    0.0100
    0.0100    0.0100    0.0100    0.0100    0.0100    0.0100    0.0100    0.0100
    0.0100    0.0100    0.0100    0.0100    0.0100    0.0100    0.0100    0.0100
    0.0100    0.0100    0.0100    0.0100    0.0100    0.0100    0.0100    0.0100
    0.0100    0.0100    0.0100    0.0100    0.0100    0.0100    0.0100    0.0100
    0.0100    0.0100    0.0100    0.0100    0.0100    0.0100    0.0100    0.0100
    0.0100    0.0100    0.0100    0.0100    0.0100    0.0100    0.0100    0.0100
    0.0100    0.0100    0.0100    0.0100    0.0100    0.0100    0.0100    0.0100
    0.0100    0.0100    0.0100    0.0100    0.0100    0.0100    0.0100    0.0100
    0.0100    0.0100    0.0100    0.0100    0.0100    0.0100    0.0100    0.0100
    0.0100    0.0100    0.0100    0.0100    0.0100    0.0100    0.0100    0.0100
    0.0100    0.0100    0.0100    0.0100    0.0100    0.0100    0.0100    0.0100
    0.0100    0.0100    0.0100    0.0100    0.0100    0.0100    0.0100    0.0100
    0.0100    0.0100    0.0100    0.0100    0.0100    0.0100    0.0100    0.0100
    0.0100    0.0100    0.0100    0.0100    0.0100    0.0100    0.0100    0.0100
    0.0100    0.0100    0.0100    0.0100    0.0100    0.0100    0.0100    0.0100
    0.0100    0.0100    0.0100    0.0100    0.0100    0.0100    0.0100    0.0100
    0.0100    0.0100    0.0100    0.0100    0.0100    0.0100    0.0100    0.0100
    0.0100    0.0100    0.0100    0.0100    0.0100    0.0100    0.0100    0.0100
    0.0100    0.0100    0.0100    0.0100    0.0100    0.0100    0.0100    0.0100
    0.0100    0.0100    0.0100    0.0100    0.0100    0.0100    0.0100    0.0100
    0.0100    0.0100
   </PP_RAB>
 </PP_MESH>
  <PP_LOCAL type="real"  size=" 722" columns="4">
   -9.6978574920E+00   -9.6964704987E+00   -9.6923115379E+00   -9.6853866233E+00
   -9.6757057481E+00   -9.6632828363E+00   -9.6481356771E+00   -9.6302858417E+00
   -9.6097585860E+00   -9.5865827374E+00   -9.5607905707E+00   -9.5324176728E+00
   -9.5015027982E+00   -9.4680877185E+00   -9.4322170665E+00   -9.3939381773E+00
   -9.3533009276E+00   -9.3103575763E+00   -9.2651626055E+00   -9.2177725651E+00
   -9.1682459220E+00   -9.1166429129E+00   -9.0630254042E+00   -9.0074567569E+00
   -8.9500016990E+00   -8.8907262036E+00   -8.8296973747E+00   -8.7669833385E+00
   -8.7026531417E+00   -8.6367766553E+00   -8.5694244844E+00   -8.5006678824E+00
   -8.4305786697E+00   -8.3592291571E+00   -8.2866920712E+00   -8.2130404836E+00
   -8.1383477416E+00   -8.0626874007E+00   -7.9861331583E+00   -7.9087587875E+00
   -7.8306380714E+00   -7.7518447369E+00   -7.6724523879E+00   -7.5925344372E+00
   -7.5121640375E+00   -7.4314140103E+00   -7.3503567734E+00   -7.2690642662E+00
   -7.1876078729E+00   -7.1060583437E+00   -7.0244857131E+00   -6.9429592168E+00
   -6.8615472051E+00   -6.7803170549E+00   -6.6993350785E+00   -6.6186664312E+00
   -6.5383750152E+00   -6.4585233826E+00   -6.3791726360E+00   -6.3003823267E+00
   -6.2222103519E+00   -6.1447128494E+00   -6.0679440919E+00   -5.9919563790E+00
   -5.9167999288E+00   -5.8425227686E+00   -5.7691706245E+00   -5.6967868114E+00
   -5.6254121219E+00   -5.5550847165E+00   -5.4858400130E+00   -5.4177105771E+00
   -5.3507260139E+00   -5.2849128598E+00   -5.2202944765E+00   -5.1568909457E+00
   -5.0947189653E+00   -5.0337917477E+00   -4.9741189189E+00   -4.9157064197E+00
   -4.8585564083E+00   -4.8026671636E+00   -4.7480329902E+00   -4.6946441241E+00
   -4.6424866381E+00   -4.5915423478E+00   -4.5417887169E+00   -4.4931987607E+00
   -4.4457409472E+00   -4.3993791388E+00   -4.3540723224E+00   -4.3097763434E+00
   -4.2664474626E+00   -4.2240440919E+00   -4.1825265603E+00   -4.1418571173E+00
   -4.1019998871E+00   -4.0629208249E+00   -4.0245876724E+00   -3.9869699122E+00
   -3.9500387217E+00   -3.9137669239E+00   -3.8781289368E+00   -3.8431007209E+00
   -3.8086597240E+00   -3.7747848243E+00   -3.7414562720E+00   -3.7086556282E+00
   -3.6763657036E+00   -3.6445704951E+00   -3.6132551227E+00   -3.5824057651E+00
   -3.5520095958E+00   -3.5220547195E+00   -3.4925301093E+00   -3.4634255447E+00
   -3.4347315509E+00   -3.4064393412E+00   -3.3785407593E+00   -3.3510282248E+00
   -3.3238946812E+00   -3.2971335464E+00   -3.2707386654E+00   -3.2447042661E+00
   -3.2190249176E+00   -3.1936954918E+00   -3.1687111269E+00   -3.1440671942E+00
   -3.1197592676E+00   -3.0957830950E+00   -3.0721345725E+00   -3.0488097210E+00
   -3.0258046649E+00   -3.0031156120E+00   -2.9807388366E+00   -2.9586706630E+00
   -2.9369074513E+00   -2.9154455843E+00   -2.8942814558E+00   -2.8734114593E+00
   -2.8528319794E+00   -2.8325393821E+00   -2.8125300073E+00   -2.7928001616E+00
   -2.7733461121E+00   -2.7541640806E+00   -2.7352502388E+00   -2.7166007040E+00
   -2.6982115358E+00   -2.6800787336E+00   -2.6621982345E+00   -2.6445659129E+00
   -2.6271775802E+00   -2.6100289863E+00   -2.5931158214E+00   -2.5764337197E+00
   -2.5599782636E+00   -2.5437449895E+00   -2.5277293944E+00   -2.5119269439E+00
   -2.4963330813E+00   -2.4809432377E+00   -2.4657528428E+00   -2.4507573367E+00
   -2.4359521825E+00   -2.4213328795E+00   -2.4068949761E+00   -2.3926340836E+00
   -2.3785458897E+00   -2.3646261717E+00   -2.3508708089E+00   -2.3372757953E+00
   -2.3238372503E+00   -2.3105514290E+00   -2.2974147313E+00   -2.2844237095E+00
   -2.2715750740E+00   -2.2588656984E+00   -2.2462926219E+00   -2.2338530507E+00
   -2.2215443572E+00   -2.2093640783E+00   -2.1973099107E+00   -2.1853797065E+00
   -2.1735714651E+00   -2.1618833260E+00   -2.1503135585E+00   -2.1388605518E+00
   -2.1275228028E+00   -2.1162989045E+00   -2.1051875329E+00   -2.0941874340E+00
   -2.0832974101E+00   -2.0725163072E+00   -2.0618430005E+00   -2.0512763826E+00
   -2.0408153511E+00   -2.0304587960E+00   -2.0202055887E+00   -2.0100545731E+00
   -2.0000045501E+00   -1.9900542708E+00   -1.9802024371E+00   -1.9704476844E+00
   -1.9607886037E+00   -1.9512237775E+00   -1.9417518146E+00   -1.9323713436E+00
   -1.9230810473E+00   -1.9138796485E+00   -1.9047658930E+00   -1.8957385291E+00
   -1.8867963290E+00   -1.8779380929E+00   -1.8691626447E+00   -1.8604688300E+00
   -1.8518555146E+00   -1.8433215856E+00   -1.8348659504E+00   -1.8264875367E+00
   -1.8181852913E+00   -1.8099581804E+00   -1.8018051884E+00   -1.7937253185E+00
   -1.7857175911E+00   -1.7777810444E+00   -1.7699147336E+00   -1.7621177303E+00
   -1.7543891226E+00   -1.7467280146E+00   -1.7391335257E+00   -1.7316047908E+00
   -1.7241409596E+00   -1.7167411964E+00   -1.7094046798E+00   -1.7021306024E+00
   -1.6949181705E+00   -1.6877666037E+00   -1.6806751348E+00   -1.6736430095E+00
   -1.6666694858E+00   -1.6597538344E+00   -1.6528953378E+00   -1.6460932903E+00
   -1.6393469980E+00   -1.6326557780E+00   -1.6260189587E+00   -1.6194358795E+00
   -1.6129058901E+00   -1.6064283510E+00   -1.6000026327E+00   -1.5936281158E+00
   -1.5873041908E+00   -1.5810302578E+00   -1.5748057263E+00   -1.5686300150E+00
   -1.5625025520E+00   -1.5564227738E+00   -1.5503901261E+00   -1.5444040630E+00
   -1.5384640468E+00   -1.5325695483E+00   -1.5267200464E+00   -1.5209150276E+00
   -1.5151539866E+00   -1.5094364254E+00   -1.5037618536E+00   -1.4981297883E+00
   -1.4925397535E+00   -1.4869912806E+00   -1.4814839077E+00   -1.4760171798E+00
   -1.4705906486E+00   -1.4652038724E+00   -1.4598564159E+00   -1.4545478502E+00
   -1.4492777525E+00   -1.4440457062E+00   -1.4388513006E+00   -1.4336941310E+00
   -1.4285737985E+00   -1.4234899097E+00   -1.4184420769E+00   -1.4134299180E+00
   -1.4084530560E+00   -1.4035111194E+00   -1.3986037419E+00   -1.3937305622E+00
   -1.3888912240E+00   -1.3840853761E+00   -1.3793126720E+00   -1.3745727700E+00
   -1.3698653331E+00   -1.3651900289E+00   -1.3605465294E+00   -1.3559345113E+00
   -1.3513536555E+00   -1.3468036472E+00   -1.3422841758E+00   -1.3377949349E+00
   -1.3333356223E+00   -1.3289059397E+00   -1.3245055926E+00   -1.3201342907E+00
   -1.3157917473E+00   -1.3114776795E+00   -1.3071918082E+00   -1.3029338579E+00
   -1.2987035564E+00   -1.2945006356E+00   -1.2903248302E+00   -1.2861758788E+00
   -1.2820535232E+00   -1.2779575085E+00   -1.2738875829E+00   -1.2698434981E+00
   -1.2658250086E+00   -1.2618318723E+00   -1.2578638500E+00   -1.2539207054E+00
   -1.2500022054E+00   -1.2461081197E+00   -1.2422382207E+00   -1.2383922839E+00
   -1.2345700873E+00   -1.2307714118E+00   -1.2269960410E+00   -1.2232437610E+00
   -1.2195143607E+00   -1.2158076314E+00   -1.2121233671E+00   -1.2084613640E+00
   -1.2048214212E+00   -1.2012033397E+00   -1.1976069233E+00   -1.1940319779E+00
   -1.1904783119E+00   -1.1869457358E+00   -1.1834340624E+00   -1.1799431067E+00
   -1.1764726860E+00   -1.1730226195E+00   -1.1695927288E+00   -1.1661828373E+00
   -1.1627927707E+00   -1.1594223566E+00   -1.1560714245E+00   -1.1527398061E+00
   -1.1494273348E+00   -1.1461338460E+00   -1.1428591771E+00   -1.1396031672E+00
   -1.1363656572E+00   -1.1331464900E+00   -1.1299455101E+00   -1.1267625638E+00
   -1.1235974991E+00   -1.1204501658E+00   -1.1173204153E+00   -1.1142081006E+00
   -1.1111130765E+00   -1.1080351992E+00   -1.1049743267E+00   -1.1019303185E+00
   -1.0989030355E+00   -1.0958923402E+00   -1.0928980968E+00   -1.0899201707E+00
   -1.0869584289E+00   -1.0840127398E+00   -1.0810829733E+00   -1.0781690006E+00
   -1.0752706944E+00   -1.0723879286E+00   -1.0695205786E+00   -1.0666685211E+00
   -1.0638316340E+00   -1.0610097967E+00   -1.0582028897E+00   -1.0554107947E+00
   -1.0526333950E+00   -1.0498705747E+00   -1.0471222194E+00   -1.0443882157E+00
   -1.0416684516E+00   -1.0389628161E+00   -1.0362711994E+00   -1.0335934928E+00
   -1.0309295887E+00   -1.0282793807E+00   -1.0256427636E+00   -1.0230196329E+00
   -1.0204098854E+00   -1.0178134191E+00   -1.0152301328E+00   -1.0126599263E+00
   -1.0101027007E+00   -1.0075583577E+00   -1.0050268004E+00   -1.0025079325E+00
   -1.0000016589E+00   -9.9750788544E-01   -9.9502651874E-01   -9.9255746647E-01
   -9.9010063720E-01   -9.8765594039E-01   -9.8522328638E-01   -9.8280258642E-01
   -9.8039375259E-01   -9.7799669788E-01   -9.7561133608E-01   -9.7323758185E-01
   -9.7087535067E-01   -9.6852455884E-01   -9.6618512346E-01   -9.6385696245E-01
   -9.6153999449E-01   -9.5923413906E-01   -9.5693931640E-01   -9.5465544753E-01
   -9.5238245420E-01   -9.5012025892E-01   -9.4786878492E-01   -9.4562795617E-01
   -9.4339769734E-01   -9.4117793383E-01   -9.3896859172E-01   -9.3676959780E-01
   -9.3458087954E-01   -9.3240236507E-01   -9.3023398321E-01   -9.2807566344E-01
   -9.2592733586E-01   -9.2378893127E-01   -9.2166038106E-01   -9.1954161727E-01
   -9.1743257257E-01   -9.1533318024E-01   -9.1324337415E-01   -9.1116308882E-01
   -9.0909225931E-01   -9.0703082132E-01   -9.0497871108E-01   -9.0293586544E-01
   -9.0090222180E-01   -8.9887771813E-01   -8.9686229293E-01   -8.9485588529E-01
   -8.9285843482E-01   -8.9086988167E-01   -8.8889016653E-01   -8.8691923061E-01
   -8.8495701564E-01   -8.8300346386E-01   -8.8105851804E-01   -8.7912212142E-01
   -8.7719421776E-01   -8.7527475132E-01   -8.7336366682E-01   -8.7146090948E-01
   -8.6956642500E-01   -8.6768015954E-01   -8.6580205973E-01   -8.6393207266E-01
   -8.6207014587E-01   -8.6021622737E-01   -8.5837026561E-01   -8.5653220946E-01
   -8.5470200825E-01   -8.5287961173E-01   -8.5106497010E-01   -8.4925803395E-01
   -8.4745875431E-01   -8.4566708262E-01   -8.4388297073E-01   -8.4210637089E-01
   -8.4033723575E-01   -8.3857551838E-01   -8.3682117221E-01   -8.3507415108E-01
   -8.3333440920E-01   -8.3160190119E-01   -8.2987658200E-01   -8.2815840700E-01
   -8.2644733190E-01   -8.2474331278E-01   -8.2304630610E-01   -8.2135626864E-01
   -8.1967315757E-01   -8.1799693039E-01   -8.1632754496E-01   -8.1466495948E-01
   -8.1300913248E-01   -8.1136002284E-01   -8.0971758976E-01   -8.0808179278E-01
   -8.0645259176E-01   -8.0482994688E-01   -8.0321381866E-01   -8.0160416792E-01
   -8.0000095578E-01   -7.9840414370E-01   -7.9681369342E-01   -7.9522956701E-01
   -7.9365172682E-01   -7.9208013552E-01   -7.9051475604E-01   -7.8895555163E-01
   -7.8740248584E-01   -7.8585552247E-01   -7.8431462563E-01   -7.8277975971E-01
   -7.8125088936E-01   -7.7972797953E-01   -7.7821099543E-01   -7.7669990254E-01
   -7.7519466660E-01   -7.7369525364E-01   -7.7220162992E-01   -7.7071376198E-01
   -7.6923161663E-01   -7.6775516090E-01   -7.6628436210E-01   -7.6481918777E-01
   -7.6335960572E-01   -7.6190558400E-01   -7.6045709088E-01   -7.5901409490E-01
   -7.5757656482E-01   -7.5614446965E-01   -7.5471777862E-01   -7.5329646120E-01
   -7.5188048709E-01   -7.5046982621E-01   -7.4906444872E-01   -7.4766432498E-01
   -7.4626942560E-01   -7.4487972138E-01   -7.4349518335E-01   -7.4211578277E-01
   -7.4074149109E-01   -7.3937227998E-01   -7.3800812132E-01   -7.3664898720E-01
   -7.3529484990E-01   -7.3394568192E-01   -7.3260145596E-01   -7.3126214491E-01
   -7.2992772187E-01   -7.2859816013E-01   -7.2727343316E-01   -7.2595351466E-01
   -7.2463837847E-01   -7.2332799867E-01   -7.2202234949E-01   -7.2072140536E-01
   -7.1942514090E-01   -7.1813353090E-01   -7.1684655033E-01   -7.1556417436E-01
   -7.1428637832E-01   -7.1301313770E-01   -7.1174442820E-01   -7.1048022568E-01
   -7.0922050615E-01   -7.0796524581E-01   -7.0671442104E-01   -7.0546800836E-01
   -7.0422598446E-01   -7.0298832621E-01   -7.0175501064E-01   -7.0052601492E-01
   -6.9930131639E-01   -6.9808089257E-01   -6.9686472111E-01   -6.9565277982E-01
   -6.9444504667E-01   -6.9324149978E-01   -6.9204211742E-01   -6.9084687802E-01
   -6.8965576014E-01   -6.8846874251E-01   -6.8728580399E-01   -6.8610692359E-01
   -6.8493208046E-01   -6.8376125389E-01   -6.8259442334E-01   -6.8143156837E-01
   -6.8027266869E-01   -6.7911770418E-01   -6.7796665480E-01   -6.7681950070E-01
   -6.7567622213E-01   -6.7453679949E-01   -6.7340121329E-01   -6.7226944421E-01
   -6.7114147302E-01   -6.7001728063E-01   -6.6889684810E-01   -6.6778015659E-01
   -6.6666718740E-01   -6.6555792194E-01   -6.6445234176E-01   -6.6335042852E-01
   -6.6225216401E-01   -6.6115753015E-01   -6.6006650894E-01   -6.5897908255E-01
   -6.5789523322E-01   -6.5681494335E-01   -6.5573819542E-01   -6.5466497205E-01
   -6.5359525596E-01   -6.5252902997E-01   -6.5146627705E-01   -6.5040698024E-01
   -6.4935112273E-01   -6.4829868777E-01   -6.4724965877E-01   -6.4620401921E-01
   -6.4516175269E-01   -6.4412284291E-01   -6.4308727370E-01   -6.4205502896E-01
   -6.4102609270E-01   -6.4000044905E-01   -6.3897808223E-01   -6.3795897656E-01
   -6.3694311646E-01   -6.3593048645E-01   -6.3492107115E-01   -6.3391485528E-01
   -6.3291182365E-01   -6.3191196116E-01   -6.3091525283E-01   -6.2992168375E-01
   -6.2893123911E-01   -6.2794390419E-01   -6.2695966439E-01   -6.2597850515E-01
   -6.2500041205E-01   -6.2402537074E-01   -6.2305336695E-01   -6.2208438651E-01