<UPF version="2.0.1">
  <PP_INFO>

 This pseudopotential file has been produced using the code
 ONCVPSP  (Optimized Norm-Conservinng Vanderbilt PSeudopotential)
 scalar-relativistic version 3.3.1 12/12/2017 by D. R. Hamann
 The code is available through a link at URL www.mat-simresearch.com.
 Documentation with the package provides a full discription of the
 input data below.


 While it is not required under the terms of the GNU GPL, it is
 suggested that you cite D. R. Hamann, Phys. Rev. B 88, 085117 (2013)
 in any publication using these pseudopotentials.

    <PP_INPUTFILE>
# ATOM AND REFERENCE CONFIGURATION
# atsym  z   nc   nv     iexc    psfile
  Ne 10.00    1    2       4      upf
#
#   n    l    f        energy (Ha)
    1    0    2.00
    2    0    2.00
    2    1    6.00
#
# PSEUDOPOTENTIAL AND OPTIMIZATION
# lmax
    1
#
#   l,   rc,      ep,       ncon, nbas, qcut
    0   2.62070  -1.33786    5    8   7.96858
    1   2.65215  -0.49002    5    8   6.60628
#
# LOCAL POTENTIAL
# lloc, lpopt,  rc(5),   dvloc0
    4    5   2.62070      0.00000
#
# VANDERBILT-KLEINMAN-BYLANDER PROJECTORs
# l, nproj, debl
    0    2   1.54861
    1    2   1.11000
#
# MODEL CORE CHARGE
# icmod, fcfact, rcfact
    0   0.00000   0.00000
#
# LOG DERIVATIVE ANALYSIS
# epsh1, epsh2, depsh
   -5.00    3.00    0.02
#
# OUTPUT GRID
# rlmax, drl
    6.00    0.01
#
# TEST CONFIGURATIONS
# ncnf
    0
# nvcnf
#   n    l    f
    </PP_INPUTFILE>
  </PP_INFO>
  <!--                               -->
  <!-- END OF HUMAN READABLE SECTION -->
  <!--                               -->
    <PP_HEADER
       generated="Generated using ONCVPSP code by D. R. Hamann"
       author="anonymous"
       date="200721"
       comment=""
       element="Ne"
       pseudo_type="NC"
       relativistic="scalar"
       is_ultrasoft="F"
       is_paw="F"
       is_coulomb="F"
       has_so="F"
       has_wfc="F"
       has_gipaw="F"
       core_correction="F"
       functional="PBE"
       z_valence="    8.00"
       total_psenergy="  -6.08141311131E+01"
       rho_cutoff="   7.57000000000E+00"
       l_max="1"
       l_local="-1"
       mesh_size="   758"
       number_of_wfc="2"
       number_of_proj="4"/>
 <PP_MESH>
   <PP_R type="real"  size=" 758" columns="8">
    0.0000    0.0100    0.0200    0.0300    0.0400    0.0500    0.0600    0.0700
    0.0800    0.0900    0.1000    0.1100    0.1200    0.1300    0.1400    0.1500
    0.1600    0.1700    0.1800    0.1900    0.2000    0.2100    0.2200    0.2300
    0.2400    0.2500    0.2600    0.2700    0.2800    0.2900    0.3000    0.3100
    0.3200    0.3300    0.3400    0.3500    0.3600    0.3700    0.3800    0.3900
    0.4000    0.4100    0.4200    0.4300    0.4400    0.4500    0.4600    0.4700
    0.4800    0.4900    0.5000    0.5100    0.5200    0.5300    0.5400    0.5500
    0.5600    0.5700    0.5800    0.5900    0.6000    0.6100    0.6200    0.6300
    0.6400    0.6500    0.6600    0.6700    0.6800    0.6900    0.7000    0.7100
    0.7200    0.7300    0.7400    0.7500    0.7600    0.7700    0.7800    0.7900
    0.8000    0.8100    0.8200    0.8300    0.8400    0.8500    0.8600    0.8700
    0.8800    0.8900    0.9000    0.9100    0.9200    0.9300    0.9400    0.9500
    0.9600    0.9700    0.9800    0.9900    1.0000    1.0100    1.0200    1.0300
    1.0400    1.0500    1.0600    1.0700    1.0800    1.0900    1.1000    1.1100
    1.1200    1.1300    1.1400    1.1500    1.1600    1.1700    1.1800    1.1900
    1.2000    1.2100    1.2200    1.2300    1.2400    1.2500    1.2600    1.2700
    1.2800    1.2900    1.3000    1.3100    1.3200    1.3300    1.3400    1.3500
    1.3600    1.3700    1.3800    1.3900    1.4000    1.4100    1.4200    1.4300
    1.4400    1.4500    1.4600    1.4700    1.4800    1.4900    1.5000    1.5100
    1.5200    1.5300    1.5400    1.5500    1.5600    1.5700    1.5800    1.5900
    1.6000    1.6100    1.6200    1.6300    1.6400    1.6500    1.6600    1.6700
    1.6800    1.6900    1.7000    1.7100    1.7200    1.7300    1.7400    1.7500
    1.7600    1.7700    1.7800    1.7900    1.8000    1.8100    1.8200    1.8300
    1.8400    1.8500    1.8600    1.8700    1.8800    1.8900    1.9000    1.9100
    1.9200    1.9300    1.9400    1.9500    1.9600    1.9700    1.9800    1.9900
    2.0000    2.0100    2.0200    2.0300    2.0400    2.0500    2.0600    2.0700
    2.0800    2.0900    2.1000    2.1100    2.1200    2.1300    2.1400    2.1500
    2.1600    2.1700    2.1800    2.1900    2.2000    2.2100    2.2200    2.2300
    2.2400    2.2500    2.2600    2.2700    2.2800    2.2900    2.3000    2.3100
    2.3200    2.3300    2.3400    2.3500    2.3600    2.3700    2.3800    2.3900
    2.4000    2.4100    2.4200    2.4300    2.4400    2.4500    2.4600    2.4700
    2.4800    2.4900    2.5000    2.5100    2.5200    2.5300    2.5400    2.5500
    2.5600    2.5700    2.5800    2.5900    2.6000    2.6100    2.6200    2.6300
    2.6400    2.6500    2.6600    2.6700    2.6800    2.6900    2.7000    2.7100
    2.7200    2.7300    2.7400    2.7500    2.7600    2.7700    2.7800    2.7900
    2.8000    2.8100    2.8200    2.8300    2.8400    2.8500    2.8600    2.8700
    2.8800    2.8900    2.9000    2.9100    2.9200    2.9300    2.9400    2.9500
    2.9600    2.9700    2.9800    2.9900    3.0000    3.0100    3.0200    3.0300
    3.0400    3.0500    3.0600    3.0700    3.0800    3.0900    3.1000    3.1100
    3.1200    3.1300    3.1400    3.1500    3.1600    3.1700    3.1800    3.1900
    3.2000    3.2100    3.2200    3.2300    3.2400    3.2500    3.2600    3.2700
    3.2800    3.2900    3.3000    3.3100    3.3200    3.3300    3.3400    3.3500
    3.3600    3.3700    3.3800    3.3900    3.4000    3.4100    3.4200    3.4300
    3.4400    3.4500    3.4600    3.4700    3.4800    3.4900    3.5000    3.5100
    3.5200    3.5300    3.5400    3.5500    3.5600    3.5700    3.5800    3.5900
    3.6000    3.6100    3.6200    3.6300    3.6400    3.6500    3.6600    3.6700
    3.6800    3.6900    3.7000    3.7100    3.7200    3.7300    3.7400    3.7500
    3.7600    3.7700    3.7800    3.7900    3.8000    3.8100    3.8200    3.8300
    3.8400    3.8500    3.8600    3.8700    3.8800    3.8900    3.9000    3.9100
    3.9200    3.9300    3.9400    3.9500    3.9600    3.9700    3.9800    3.9900
    4.0000    4.0100    4.0200    4.0300    4.0400    4.0500    4.0600    4.0700
    4.0800    4.0900    4.1000    4.1100    4.1200    4.1300    4.1400    4.1500
    4.1600    4.1700    4.1800    4.1900    4.2000    4.2100    4.2200    4.2300
    4.2400    4.2500    4.2600    4.2700    4.2800    4.2900    4.3000    4.3100
    4.3200    4.3300    4.3400    4.3500    4.3600    4.3700    4.3800    4.3900
    4.4000    4.4100    4.4200    4.4300    4.4400    4.4500    4.4600    4.4700
    4.4800    4.4900    4.5000    4.5100    4.5200    4.5300    4.5400    4.5500
    4.5600    4.5700    4.5800    4.5900    4.6000    4.6100    4.6200    4.6300
    4.6400    4.6500    4.6600    4.6700    4.6800    4.6900    4.7000    4.7100
    4.7200    4.7300    4.7400    4.7500    4.7600    4.7700    4.7800    4.7900
    4.8000    4.8100    4.8200    4.8300    4.8400    4.8500    4.8600    4.8700
    4.8800    4.8900    4.9000    4.9100    4.9200    4.9300    4.9400    4.9500
    4.9600    4.9700    4.9800    4.9900    5.0000    5.0100    5.0200    5.0300
    5.0400    5.0500    5.0600    5.0700    5.0800    5.0900    5.1000    5.1100
    5.1200    5.1300    5.1400    5.1500    5.1600    5.1700    5.1800    5.1900
    5.2000    5.2100    5.2200    5.2300    5.2400    5.2500    5.2600    5.2700
    5.2800    5.2900    5.3000    5.3100    5.3200    5.3300    5.3400    5.3500
    5.3600    5.3700    5.3800    5.3900    5.4000    5.4100    5.4200    5.4300
    5.4400    5.4500    5.4600    5.4700    5.4800    5.4900    5.5000    5.5100
    5.5200    5.5300    5.5400    5.5500    5.5600    5.5700    5.5800    5.5900
    5.6000    5.6100    5.6200    5.6300    5.6400    5.6500    5.6600    5.6700
    5.6800    5.6900    5.7000    5.7100    5.7200    5.7300    5.7400    5.7500
    5.7600    5.7700    5.7800    5.7900    5.8000    5.8100    5.8200    5.8300
    5.8400    5.8500    5.8600    5.8700    5.8800    5.8900    5.9000    5.9100
    5.9200    5.9300    5.9400    5.9500    5.9600    5.9700    5.9800    5.9900
    6.0000    6.0100    6.0200    6.0300    6.0400    6.0500    6.0600    6.0700
    6.0800    6.0900    6.1000    6.1100    6.1200    6.1300    6.1400    6.1500
    6.1600    6.1700    6.1800    6.1900    6.2000    6.2100    6.2200    6.2300
    6.2400    6.2500    6.2600    6.2700    6.2800    6.2900    6.3000    6.3100
    6.3200    6.3300    6.3400    6.3500    6.3600    6.3700    6.3800    6.3900
    6.4000    6.4100    6.4200    6.4300    6.4400    6.4500    6.4600    6.4700
    6.4800    6.4900    6.5000    6.5100    6.5200    6.5300    6.5400    6.5500
    6.5600    6.5700    6.5800    6.5900    6.6000    6.6100    6.6200    6.6300
    6.6400    6.6500    6.6600    6.6700    6.6800    6.6900    6.7000    6.7100
    6.7200    6.7300    6.7400    6.7500    6.7600    6.7700    6.7800    6.7900
    6.8000    6.8100    6.8200    6.8300    6.8400    6.8500    6.8600    6.8700
    6.8800    6.8900    6.9000    6.9100    6.9200    6.9300    6.9400    6.9500
    6.9600    6.9700    6.9800    6.9900    7.0000    7.0100    7.0200    7.0300
    7.0400    7.0500    7.0600    7.0700    7.0800    7.0900    7.1000    7.1100
    7.1200    7.1300    7.1400    7.1500    7.1600    7.1700    7.1800    7.1900
    7.2000    7.2100    7.2200    7.2300    7.2400    7.2500    7.2600    7.2700
    7.2800    7.2900    7.3000    7.3100    7.3200    7.3300    7.3400    7.3500
    7.3600    7.3700    7.3800    7.3900    7.4000    7.4100    7.4200    7.4300
    7.4400    7.4500    7.4600    7.4700    7.4800    7.4900    7.5000    7.5100
    7.5200    7.5300    7.5400    7.5500    7.5600    7.5700
   </PP_R>
   <PP_RAB type="real"  size=" 758" columns="8">
    0.0100    0.0100    0.0100    0.0100    0.0100    0.0100    0.0100    0.0100
    0.0100    0.0100    0.0100    0.0100    0.0100    0.0100    0.0100    0.0100
    0.0100    0.0100    0.0100    0.0100    0.0100    0.0100    0.0100    0.0100
    0.0100    0.0100    0.0100    0.0100    0.0100    0.0100    0.0100    0.0100
    0.0100    0.0100    0.0100    0.0100    0.0100    0.0100    0.0100    0.0100
    0.0100    0.0100    0.0100    0.0100    0.0100    0.0100    0.0100    0.0100
    0.0100    0.0100    0.0100    0.0100    0.0100    0.0100    0.0100    0.0100
    0.0100    0.0100    0.0100    0.0100    0.0100    0.0100    0.0100    0.0100
    0.0100    0.0100    0.0100    0.0100    0.0100    0.0100    0.0100    0.0100
    0.0100    0.0100    0.0100    0.0100    0.0100    0.0100    0.0100    0.0100
    0.0100    0.0100    0.0100    0.0100    0.0100    0.0100    0.0100    0.0100
    0.0100    0.0100    0.0100    0.0100    0.0100    0.0100    0.0100    0.0100
    0.0100    0.0100    0.0100    0.0100    0.0100    0.0100    0.0100    0.0100
    0.0100    0.0100    0.0100    0.0100    0.0100    0.0100    0.0100    0.0100
    0.0100    0.0100    0.0100    0.0100    0.0100    0.0100    0.0100    0.0100
    0.0100    0.0100    0.0100    0.0100    0.0100    0.0100    0.0100    0.0100
    0.0100    0.0100    0.0100    0.0100    0.0100    0.0100    0.0100    0.0100
    0.0100    0.0100    0.0100    0.0100    0.0100    0.0100    0.0100    0.0100
    0.0100    0.0100    0.0100    0.0100    0.0100    0.0100    0.0100    0.0100
    0.0100    0.0100    0.0100    0.0100    0.0100    0.0100    0.0100    0.0100
    0.0100    0.0100    0.0100    0.0100    0.0100    0.0100    0.0100    0.0100
    0.0100    0.0100    0.0100    0.0100    0.0100    0.0100    0.0100    0.0100
    0.0100    0.0100    0.0100    0.0100    0.0100    0.0100    0.0100    0.0100
    0.0100    0.0100    0.0100    0.0100    0.0100    0.0100    0.0100    0.0100
    0.0100    0.0100    0.0100    0.0100    0.0100    0.0100    0.0100    0.0100
    0.0100    0.0100    0.0100    0.0100    0.0100    0.0100    0.0100    0.0100
    0.0100    0.0100    0.0100    0.0100    0.0100    0.0100    0.0100    0.0100
    0.0100    0.0100    0.0100    0.0100    0.0100    0.0100    0.0100    0.0100
    0.0100    0.0100    0.0100    0.0100    0.0100    0.0100    0.0100    0.0100
    0.0100    0.0100    0.0100    0.0100    0.0100    0.0100    0.0100    0.0100
    0.0100    0.0100    0.0100    0.0100    0.0100    0.0100    0.0100    0.0100
    0.0100    0.0100    0.0100    0.0100    0.0100    0.0100    0.0100    0.0100
    0.0100    0.0100    0.0100    0.0100    0.0100    0.0100    0.0100    0.0100
    0.0100    0.0100    0.0100    0.0100    0.0100    0.0100    0.0100    0.0100
    0.0100    0.0100    0.0100    0.0100    0.0100    0.0100    0.0100    0.0100
    0.0100    0.0100    0.0100    0.0100    0.0100    0.0100    0.0100    0.0100
    0.0100    0.0100    0.0100    0.0100    0.0100    0.0100    0.0100    0.0100
    0.0100    0.0100    0.0100    0.0100    0.0100    0.0100    0.0100    0.0100
    0.0100    0.0100    0.0100    0.0100    0.0100    0.0100    0.0100    0.0100
    0.0100    0.0100    0.0100    0.0100    0.0100    0.0100    0.0100    0.0100
    0.0100    0.0100    0.0100    0.0100    0.0100    0.0100    0.0100    0.0100
    0.0100    0.0100    0.0100    0.0100    0.0100    0.0100    0.0100    0.0100
    0.0100    0.0100    0.0100    0.0100    0.0100    0.0100    0.0100    0.0100
    0.0100    0.0100    0.0100    0.0100    0.0100    0.0100    0.0100    0.0100
    0.0100    0.0100    0.0100    0.0100    0.0100    0.0100    0.0100    0.0100
    0.0100    0.0100    0.0100    0.0100    0.0100    0.0100    0.0100    0.0100
    0.0100    0.0100    0.0100    0.0100    0.0100    0.0100    0.0100    0.0100
    0.0100    0.0100    0.0100    0.0100    0.0100    0.0100    0.0100    0.0100
    0.0100    0.0100    0.0100    0.0100    0.0100    0.0100    0.0100    0.0100
    0.0100    0.0100    0.0100    0.0100    0.0100    0.0100    0.0100    0.0100
    0.0100    0.0100    0.0100    0.0100    0.0100    0.0100    0.0100    0.0100
    0.0100    0.0100    0.0100    0.0100    0.0100    0.0100    0.0100    0.0100
    0.0100    0.0100    0.0100    0.0100    0.0100    0.0100    0.0100    0.0100
    0.0100    0.0100    0.0100    0.0100    0.0100    0.0100    0.0100    0.0100
    0.0100    0.0100    0.0100    0.0100    0.0100    0.0100    0.0100    0.0100
    0.0100    0.0100    0.0100    0.0100    0.0100    0.0100    0.0100    0.0100
    0.0100    0.0100    0.0100    0.0100    0.0100    0.0100    0.0100    0.0100
    0.0100    0.0100    0.0100    0.0100    0.0100    0.0100    0.0100    0.0100
    0.0100    0.0100    0.0100    0.0100    0.0100    0.0100    0.0100    0.0100
    0.0100    0.0100    0.0100    0.0100    0.0100    0.0100    0.0100    0.0100
    0.0100    0.0100    0.0100    0.0100    0.0100    0.0100    0.0100    0.0100
    0.0100    0.0100    0.0100    0.0100    0.0100    0.0100    0.0100    0.0100
    0.0100    0.0100    0.0100    0.0100    0.0100    0.0100    0.0100    0.0100
    0.0100    0.0100    0.0100    0.0100    0.0100    0.0100    0.0100    0.0100
    0.0100    0.0100    0.0100    0.0100    0.0100    0.0100    0.0100    0.0100
    0.0100    0.0100    0.0100    0.0100    0.0100    0.0100    0.0100    0.0100
    0.0100    0.0100    0.0100    0.0100    0.0100    0.0100    0.0100    0.0100
    0.0100    0.0100    0.0100    0.0100    0.0100    0.0100    0.0100    0.0100
    0.0100    0.0100    0.0100    0.0100    0.0100    0.0100    0.0100    0.0100
    0.0100    0.0100    0.0100    0.0100    0.0100    0.0100    0.0100    0.0100
    0.0100    0.0100    0.0100    0.0100    0.0100    0.0100    0.0100    0.0100
    0.0100    0.0100    0.0100    0.0100    0.0100    0.0100    0.0100    0.0100
    0.0100    0.0100    0.0100    0.0100    0.0100    0.0100    0.0100    0.0100
    0.0100    0.0100    0.0100    0.0100    0.0100    0.0100    0.0100    0.0100
    0.0100    0.0100    0.0100    0.0100    0.0100    0.0100    0.0100    0.0100
    0.0100    0.0100    0.0100    0.0100    0.0100    0.0100    0.0100    0.0100
    0.0100    0.0100    0.0100    0.0100    0.0100    0.0100    0.0100    0.0100
    0.0100    0.0100    0.0100    0.0100    0.0100    0.0100    0.0100    0.0100
    0.0100    0.0100    0.0100    0.0100    0.0100    0.0100    0.0100    0.0100
    0.0100    0.0100    0.0100    0.0100    0.0100    0.0100    0.0100    0.0100
    0.0100    0.0100    0.0100    0.0100    0.0100    0.0100    0.0100    0.0100
    0.0100    0.0100    0.0100    0.0100    0.0100    0.0100    0.0100    0.0100
    0.0100    0.0100    0.0100    0.0100    0.0100    0.0100    0.0100    0.0100
    0.0100    0.0100    0.0100    0.0100    0.0100    0.0100    0.0100    0.0100
    0.0100    0.0100    0.0100    0.0100    0.0100    0.0100    0.0100    0.0100
    0.0100    0.0100    0.0100    0.0100    0.0100    0.0100    0.0100    0.0100
    0.0100    0.0100    0.0100    0.0100    0.0100    0.0100    0.0100    0.0100
    0.0100    0.0100    0.0100    0.0100    0.0100    0.0100    0.0100    0.0100
    0.0100    0.0100    0.0100    0.0100    0.0100    0.0100    0.0100    0.0100
    0.0100    0.0100    0.0100    0.0100    0.0100    0.0100    0.0100    0.0100
    0.0100    0.0100    0.0100    0.0100    0.0100    0.0100    0.0100    0.0100
    0.0100    0.0100    0.0100    0.0100    0.0100    0.0100    0.0100    0.0100
    0.0100    0.0100    0.0100    0.0100    0.0100    0.0100    0.0100    0.0100
    0.0100    0.0100    0.0100    0.0100    0.0100    0.0100    0.0100    0.0100
    0.0100    0.0100    0.0100    0.0100    0.0100    0.0100
   </PP_RAB>
 </PP_MESH>
  <PP_LOCAL type="real"  size=" 758" columns="4">
   -1.7346912853E+01   -1.7351830357E+01   -1.7365573401E+01   -1.7386191576E+01
   -1.7410811324E+01   -1.7436310794E+01   -1.7459840849E+01   -1.7479165985E+01
   -1.7492798913E+01   -1.7499969644E+01   -1.7500496766E+01   -1.7494623404E+01
   -1.7482860436E+01   -1.7465858479E+01   -1.7444314714E+01   -1.7418911738E+01
   -1.7390281887E+01   -1.7358989909E+01   -1.7325527729E+01   -1.7290316518E+01
   -1.7253712653E+01   -1.7216015322E+01   -1.7177474393E+01   -1.7138297798E+01
   -1.7098658041E+01   -1.7058697732E+01   -1.7018534170E+01   -1.6978263050E+01
   -1.6937961459E+01   -1.6897690247E+01   -1.6857495926E+01   -1.6817412185E+01
   -1.6777461115E+01   -1.6737654204E+01   -1.6697993176E+01   -1.6658470708E+01
   -1.6619071065E+01   -1.6579770682E+01   -1.6540538722E+01   -1.6501337626E+01
   -1.6462123681E+01   -1.6422847602E+01   -1.6383455167E+01   -1.6343887886E+01
   -1.6304083732E+01   -1.6263977921E+01   -1.6223503745E+01   -1.6182593453E+01
   -1.6141179167E+01   -1.6099193823E+01   -1.6056572113E+01   -1.6013251425E+01
   -1.5969172738E+01   -1.5924281464E+01   -1.5878528218E+01   -1.5831869481E+01
   -1.5784268160E+01   -1.5735694010E+01   -1.5686123925E+01   -1.5635542085E+01
   -1.5583939963E+01   -1.5531316196E+01   -1.5477676330E+01   -1.5423032458E+01
   -1.5367402758E+01   -1.5310810953E+01   -1.5253285727E+01   -1.5194860093E+01
   -1.5135570747E+01   -1.5075457430E+01   -1.5014562296E+01   -1.4952929321E+01
   -1.4890603745E+01   -1.4827631566E+01   -1.4764059085E+01   -1.4699932511E+01
   -1.4635297621E+01   -1.4570199478E+01   -1.4504682196E+01   -1.4438788765E+01
   -1.4372560913E+01   -1.4306039010E+01   -1.4239262007E+01   -1.4172267406E+01
   -1.4105091255E+01   -1.4037768155E+01   -1.3970331296E+01   -1.3902812490E+01
   -1.3835242226E+01   -1.3767649716E+01   -1.3700062955E+01   -1.3632508776E+01
   -1.3565012903E+01   -1.3497600006E+01   -1.3430293746E+01   -1.3363116823E+01
   -1.3296091014E+01   -1.3229237206E+01   -1.3162575430E+01   -1.3096124878E+01
   -1.3029903929E+01   -1.2963930161E+01   -1.2898220359E+01   -1.2832790522E+01
   -1.2767655862E+01   -1.2702830805E+01   -1.2638328981E+01   -1.2574163215E+01
   -1.2510345518E+01   -1.2446887067E+01   -1.2383798194E+01   -1.2321088362E+01
   -1.2258766151E+01   -1.2196839229E+01   -1.2135314338E+01   -1.2074197270E+01
   -1.2013492843E+01   -1.1953204885E+01   -1.1893336211E+01   -1.1833888610E+01
   -1.1774862830E+01   -1.1716258569E+01   -1.1658074467E+01   -1.1600308108E+01
   -1.1542956022E+01   -1.1486013703E+01   -1.1429475623E+01   -1.1373335263E+01
   -1.1317585148E+01   -1.1262216896E+01   -1.1207221268E+01   -1.1152588239E+01
   -1.1098307072E+01   -1.1044366397E+01   -1.0990754313E+01   -1.0937458483E+01
   -1.0884466246E+01   -1.0831764733E+01   -1.0779340983E+01   -1.0727182068E+01
   -1.0675275219E+01   -1.0623607943E+01   -1.0572168151E+01   -1.0520944268E+01
   -1.0469925347E+01   -1.0419101168E+01   -1.0368462332E+01   -1.0318000339E+01
   -1.0267707661E+01   -1.0217577791E+01   -1.0167605289E+01   -1.0117785807E+01
   -1.0068116101E+01   -1.0018594029E+01   -9.9692185408E+00   -9.9199896427E+00
   -9.8709083633E+00   -9.8219767012E+00   -9.7731975655E+00   -9.7245747087E+00
   -9.6761126518E+00   -9.6278166058E+00   -9.5796923890E+00   -9.5317463419E+00
   -9.4839852422E+00   -9.4364162194E+00   -9.3890466716E+00   -9.3418841849E+00
   -9.2949364562E+00   -9.2482112200E+00   -9.2017161809E+00   -9.1554589504E+00
   -9.1094469901E+00   -9.0636875598E+00   -9.0181876729E+00   -8.9729540559E+00
   -8.9279931154E+00   -8.8833109089E+00   -8.8389131227E+00   -8.7948050532E+00
   -8.7509915938E+00   -8.7074772262E+00   -8.6642660146E+00   -8.6213616049E+00
   -8.5787672257E+00   -8.5364856930E+00   -8.4945194170E+00   -8.4528704112E+00
   -8.4115403027E+00   -8.3705303445E+00   -8.3298414293E+00   -8.2894741030E+00
   -8.2494285805E+00   -8.2097047606E+00   -8.1703022425E+00   -8.1312203409E+00
   -8.0924581029E+00   -8.0540143234E+00   -8.0158875605E+00   -7.9780761516E+00
   -7.9405782276E+00   -7.9033917277E+00   -7.8665144130E+00   -7.8299438805E+00
   -7.7936775751E+00   -7.7577128027E+00   -7.7220467410E+00   -7.6866764513E+00
   -7.6515988890E+00   -7.6168109133E+00   -7.5823092977E+00   -7.5480907389E+00
   -7.5141518662E+00   -7.4804892507E+00   -7.4470994138E+00   -7.4139788365E+00
   -7.3811239683E+00   -7.3485312363E+00   -7.3161970542E+00   -7.2841178322E+00
   -7.2522899866E+00   -7.2207099494E+00   -7.1893741791E+00   -7.1582791705E+00
   -7.1274214654E+00   -7.0967976631E+00   -7.0664044308E+00   -7.0362385137E+00
   -7.0062967453E+00   -6.9765760565E+00   -6.9470734848E+00   -6.9177861826E+00
   -6.8887114241E+00   -6.8598466122E+00   -6.8311892834E+00   -6.8027371120E+00
   -6.7744879128E+00   -6.7464396423E+00   -6.7185903992E+00   -6.6909384222E+00
   -6.6634820881E+00   -6.6362199066E+00   -6.6091505150E+00   -6.5822726718E+00
   -6.5555852482E+00   -6.5290872187E+00   -6.5027776518E+00   -6.4766556985E+00
   -6.4507205809E+00   -6.4249715799E+00   -6.3994080232E+00   -6.3740292719E+00
   -6.3488347077E+00   -6.3238237203E+00   -6.2989956946E+00   -6.2743499977E+00
   -6.2498859676E+00   -6.2256029007E+00   -6.2015000423E+00   -6.1775765744E+00
   -6.1538316027E+00   -6.1302641614E+00   -6.1068731889E+00   -6.0836575285E+00
   -6.0606159025E+00   -6.0377469315E+00   -6.0150491394E+00   -5.9925209462E+00
   -5.9701606917E+00   -5.9479666534E+00   -5.9259370608E+00   -5.9040701153E+00
   -5.8823640064E+00   -5.8608169356E+00   -5.8394271372E+00   -5.8181928699E+00
   -5.7971124225E+00   -5.7761841482E+00   -5.7554064231E+00   -5.7347776632E+00
   -5.7142962673E+00   -5.6939606567E+00   -5.6737692715E+00   -5.6537205787E+00
   -5.6338130742E+00   -5.6140452722E+00   -5.5944157092E+00   -5.5749229390E+00
   -5.5555655368E+00   -5.5363420974E+00   -5.5172512348E+00   -5.4982915822E+00
   -5.4794617917E+00   -5.4607605333E+00   -5.4421864955E+00   -5.4237383845E+00
   -5.4054149241E+00   -5.3872148550E+00   -5.3691369349E+00   -5.3511799384E+00
   -5.3333426561E+00   -5.3156238948E+00   -5.2980224770E+00   -5.2805372411E+00
   -5.2631670403E+00   -5.2459107431E+00   -5.2287672329E+00   -5.2117354073E+00
   -5.1948141786E+00   -5.1780024730E+00   -5.1612992305E+00   -5.1447034048E+00
   -5.1282139630E+00   -5.1118298855E+00   -5.0955501655E+00   -5.0793738092E+00
   -5.0632998352E+00   -5.0473272746E+00   -5.0314551705E+00   -5.0156825784E+00
   -5.0000085651E+00   -4.9844322094E+00   -4.9689526015E+00   -4.9535688426E+00
   -4.9382800453E+00   -4.9230853330E+00   -4.9079838399E+00   -4.8929747107E+00
   -4.8780571006E+00   -4.8632301751E+00   -4.8484931098E+00   -4.8338450901E+00
   -4.8192853115E+00   -4.8048129790E+00   -4.7904273070E+00   -4.7761275195E+00
   -4.7619128497E+00   -4.7477825399E+00   -4.7337358413E+00   -4.7197720140E+00
   -4.7058903267E+00   -4.6920900568E+00   -4.6783704901E+00   -4.6647309207E+00
   -4.6511706509E+00   -4.6376889911E+00   -4.6242852599E+00   -4.6109587834E+00
   -4.5977088956E+00   -4.5845349383E+00   -4.5714362605E+00   -4.5584122188E+00
   -4.5454621771E+00   -4.5325855065E+00   -4.5197815852E+00   -4.5070497985E+00
   -4.4943895385E+00   -4.4818002040E+00   -4.4692812008E+00   -4.4568319410E+00
   -4.4444518436E+00   -4.4321403338E+00   -4.4198968430E+00   -4.4077208093E+00
   -4.3956116766E+00   -4.3835688951E+00   -4.3715919209E+00   -4.3596802160E+00
   -4.3478332485E+00   -4.3360504918E+00   -4.3243314255E+00   -4.3126755346E+00
   -4.3010823094E+00   -4.2895512461E+00   -4.2780818460E+00   -4.2666736158E+00
   -4.2553260674E+00   -4.2440387180E+00   -4.2328110897E+00   -4.2216427100E+00
   -4.2105331109E+00   -4.1994818297E+00   -4.1884884084E+00   -4.1775523938E+00
   -4.1666733374E+00   -4.1558507954E+00   -4.1450843284E+00   -4.1343735020E+00
   -4.1237178857E+00   -4.1131170540E+00   -4.1025705852E+00   -4.0920780624E+00
   -4.0816390727E+00   -4.0712532074E+00   -4.0609200621E+00   -4.0506392362E+00
   -4.0404103336E+00   -4.0302329618E+00   -4.0201067324E+00   -4.0100312609E+00
   -4.0000061665E+00   -3.9900310725E+00   -3.9801056056E+00   -3.9702293965E+00
   -3.9604020794E+00   -3.9506232920E+00   -3.9408926759E+00   -3.9312098759E+00
   -3.9215745405E+00   -3.9119863215E+00   -3.9024448742E+00   -3.8929498572E+00
   -3.8835009323E+00   -3.8740977649E+00   -3.8647400232E+00   -3.8554273790E+00
   -3.8461595070E+00   -3.8369360851E+00   -3.8277567943E+00   -3.8186213186E+00
   -3.8095293451E+00   -3.8004805638E+00   -3.7914746676E+00   -3.7825113524E+00
   -3.7735903168E+00   -3.7647112626E+00   -3.7558738939E+00   -3.7470779181E+00
   -3.7383230448E+00   -3.7296089867E+00   -3.7209354590E+00   -3.7123021797E+00
   -3.7037088692E+00   -3.6951552506E+00   -3.6866410495E+00   -3.6781659942E+00
   -3.6697298151E+00   -3.6613322456E+00   -3.6529730210E+00   -3.6446518795E+00
   -3.6363685612E+00   -3.6281228090E+00   -3.6199143679E+00   -3.6117429851E+00
   -3.6036084104E+00   -3.5955103955E+00   -3.5874486945E+00   -3.5794230637E+00
   -3.5714332617E+00   -3.5634790489E+00   -3.5555601882E+00   -3.5476764443E+00
   -3.5398275843E+00   -3.5320133770E+00   -3.5242335936E+00   -3.5164880070E+00
   -3.5087763922E+00   -3.5010985263E+00   -3.4934541882E+00   -3.4858431588E+00
   -3.4782652207E+00   -3.4707201588E+00   -3.4632077595E+00   -3.4557278111E+00
   -3.4482801039E+00   -3.4408644299E+00   -3.4334805828E+00   -3.4261283581E+00
   -3.4188075533E+00   -3.4115179672E+00   -3.4042594007E+00   -3.3970316561E+00
   -3.3898345376E+00   -3.3826678508E+00   -3.3755314033E+00   -3.3684250040E+00
   -3.3613484635E+00   -3.3543015941E+00   -3.3472842095E+00   -3.3402961251E+00
   -3.3333371577E+00   -3.3264071258E+00   -3.3195058492E+00   -3.3126331493E+00
   -3.3057888491E+00   -3.2989727728E+00   -3.2921847462E+00   -3.2854245966E+00
   -3.2786921525E+00   -3.2719872440E+00   -3.2653097026E+00   -3.2586593609E+00
   -3.2520360531E+00   -3.2454396148E+00   -3.2388698828E+00   -3.2323266952E+00
   -3.2258098914E+00   -3.2193193122E+00   -3.2128547996E+00   -3.2064161970E+00
   -3.2000033488E+00   -3.1936161008E+00   -3.1872543001E+00   -3.1809177948E+00
   -3.1746064345E+00   -3.1683200697E+00   -3.1620585522E+00   -3.1558217350E+00
   -3.1496094723E+00   -3.1434216192E+00   -3.1372580323E+00   -3.1311185691E+00
   -3.1250030882E+00   -3.1189114494E+00   -3.1128435135E+00   -3.1067991424E+00
   -3.1007781992E+00   -3.0947805479E+00   -3.0888060536E+00   -3.0828545824E+00
   -3.0769260016E+00   -3.0710201792E+00   -3.0651369846E+00   -3.0592762879E+00
   -3.0534379603E+00   -3.0476218740E+00   -3.0418279022E+00   -3.0360559189E+00
   -3.0303057992E+00   -3.0245774192E+00   -3.0188706557E+00   -3.0131853867E+00
   -3.0075214909E+00   -3.0018788481E+00   -2.9962573388E+00   -2.9906568446E+00
   -2.9850772477E+00   -2.9795184316E+00   -2.9739802802E+00   -2.9684626786E+00
   -2.9629655126E+00   -2.9574886689E+00   -2.9520320350E+00   -2.9465954992E+00
   -2.9411789508E+00   -2.9357822797E+00   -2.9304053766E+00   -2.9250481332E+00
   -2.9197104418E+00   -2.9143921956E+00   -2.9090932885E+00   -2.9038136153E+00
   -2.8985530714E+00   -2.8933115530E+00   -2.8880889570E+00   -2.8828851813E+00
   -2.8777001243E+00   -2.8725336851E+00   -2.8673857637E+00   -2.8622562606E+00
   -2.8571450773E+00   -2.8520521156E+00   -2.8469772785E+00   -2.8419204692E+00
   -2.8368815919E+00   -2.8318605514E+00   -2.8268572532E+00   -2.8218716033E+00
   -2.8169035086E+00   -2.8119528764E+00   -2.8070196150E+00   -2.8021036329E+00
   -2.7972048397E+00   -2.7923231453E+00   -2.7874584603E+00   -2.7826106960E+00
   -2.7777797642E+00   -2.7729655775E+00   -2.7681680489E+00   -2.7633870922E+00
   -2.7586226215E+00   -2.7538745518E+00   -2.7491427986E+00   -2.7444272778E+00
   -2.7397279062E+00   -2.7350446008E+00   -2.7303772794E+00   -2.7257258603E+00
   -2.7210902625E+00   -2.7164704052E+00   -2.7118662086E+00   -2.7072775930E+00
   -2.7027044795E+00   -2.6981467898E+00   -2.6936044458E+00   -2.6890773703E+00
   -2.6845654863E+00   -2.6800687176E+00   -2.6755869883E+00   -2.6711202230E+00
   -2.6666683470E+00   -2.6622312860E+00   -2.6578089661E+00   -2.6534013139E+00