<UPF version="2.0.1">
  <PP_INFO>

 This pseudopotential file has been produced using the code
 ONCVPSP  (Optimized Norm-Conservinng Vanderbilt PSeudopotential)
 scalar-relativistic version 3.3.1 12/12/2017 by D. R. Hamann
 The code is available through a link at URL www.mat-simresearch.com.
 Documentation with the package provides a full discription of the
 input data below.


 While it is not required under the terms of the GNU GPL, it is
 suggested that you cite D. R. Hamann, Phys. Rev. B 88, 085117 (2013)
 in any publication using these pseudopotentials.

    <PP_INPUTFILE>
# ATOM AND REFERENCE CONFIGURATION
# atsym  z   nc   nv     iexc    psfile
  He  2.00    0    1       3      upf
#
#   n    l    f        energy (Ha)
    1    0    2.00
#
# PSEUDOPOTENTIAL AND OPTIMIZATION
# lmax
    0
#
#   l,   rc,      ep,       ncon, nbas, qcut
    0   1.99006  -0.57023    5    8   7.17231
#
# LOCAL POTENTIAL
# lloc, lpopt,  rc(5),   dvloc0
    4    5   0.89489      0.00000
#
# VANDERBILT-KLEINMAN-BYLANDER PROJECTORs
# l, nproj, debl
    0    2   1.34022
#
# MODEL CORE CHARGE
# icmod, fcfact, rcfact
    0   0.00000   0.00000
#
# LOG DERIVATIVE ANALYSIS
# epsh1, epsh2, depsh
   -5.00    3.00    0.02
#
# OUTPUT GRID
# rlmax, drl
    6.00    0.01
#
# TEST CONFIGURATIONS
# ncnf
    0
# nvcnf
#   n    l    f
    </PP_INPUTFILE>
  </PP_INFO>
  <!--                               -->
  <!-- END OF HUMAN READABLE SECTION -->
  <!--                               -->
    <PP_HEADER
       generated="Generated using ONCVPSP code by D. R. Hamann"
       author="anonymous"
       date="200721"
       comment=""
       element="He"
       pseudo_type="NC"
       relativistic="scalar"
       is_ultrasoft="F"
       is_paw="F"
       is_coulomb="F"
       has_so="F"
       has_wfc="F"
       has_gipaw="F"
       core_correction="F"
       functional="PZ"
       z_valence="    2.00"
       total_psenergy="  -5.47959098554E+00"
       rho_cutoff="   7.31000000000E+00"
       l_max="0"
       l_local="-1"
       mesh_size="   732"
       number_of_wfc="1"
       number_of_proj="2"/>
 <PP_MESH>
   <PP_R type="real"  size=" 732" columns="8">
    0.0000    0.0100    0.0200    0.0300    0.0400    0.0500    0.0600    0.0700
    0.0800    0.0900    0.1000    0.1100    0.1200    0.1300    0.1400    0.1500
    0.1600    0.1700    0.1800    0.1900    0.2000    0.2100    0.2200    0.2300
    0.2400    0.2500    0.2600    0.2700    0.2800    0.2900    0.3000    0.3100
    0.3200    0.3300    0.3400    0.3500    0.3600    0.3700    0.3800    0.3900
    0.4000    0.4100    0.4200    0.4300    0.4400    0.4500    0.4600    0.4700
    0.4800    0.4900    0.5000    0.5100    0.5200    0.5300    0.5400    0.5500
    0.5600    0.5700    0.5800    0.5900    0.6000    0.6100    0.6200    0.6300
    0.6400    0.6500    0.6600    0.6700    0.6800    0.6900    0.7000    0.7100
    0.7200    0.7300    0.7400    0.7500    0.7600    0.7700    0.7800    0.7900
    0.8000    0.8100    0.8200    0.8300    0.8400    0.8500    0.8600    0.8700
    0.8800    0.8900    0.9000    0.9100    0.9200    0.9300    0.9400    0.9500
    0.9600    0.9700    0.9800    0.9900    1.0000    1.0100    1.0200    1.0300
    1.0400    1.0500    1.0600    1.0700    1.0800    1.0900    1.1000    1.1100
    1.1200    1.1300    1.1400    1.1500    1.1600    1.1700    1.1800    1.1900
    1.2000    1.2100    1.2200    1.2300    1.2400    1.2500    1.2600    1.2700
    1.2800    1.2900    1.3000    1.3100    1.3200    1.3300    1.3400    1.3500
    1.3600    1.3700    1.3800    1.3900    1.4000    1.4100    1.4200    1.4300
    1.4400    1.4500    1.4600    1.4700    1.4800    1.4900    1.5000    1.5100
    1.5200    1.5300    1.5400    1.5500    1.5600    1.5700    1.5800    1.5900
    1.6000    1.6100    1.6200    1.6300    1.6400    1.6500    1.6600    1.6700
    1.6800    1.6900    1.7000    1.7100    1.7200    1.7300    1.7400    1.7500
    1.7600    1.7700    1.7800    1.7900    1.8000    1.8100    1.8200    1.8300
    1.8400    1.8500    1.8600    1.8700    1.8800    1.8900    1.9000    1.9100
    1.9200    1.9300    1.9400    1.9500    1.9600    1.9700    1.9800    1.9900
    2.0000    2.0100    2.0200    2.0300    2.0400    2.0500    2.0600    2.0700
    2.0800    2.0900    2.1000    2.1100    2.1200    2.1300    2.1400    2.1500
    2.1600    2.1700    2.1800    2.1900    2.2000    2.2100    2.2200    2.2300
    2.2400    2.2500    2.2600    2.2700    2.2800    2.2900    2.3000    2.3100
    2.3200    2.3300    2.3400    2.3500    2.3600    2.3700    2.3800    2.3900
    2.4000    2.4100    2.4200    2.4300    2.4400    2.4500    2.4600    2.4700
    2.4800    2.4900    2.5000    2.5100    2.5200    2.5300    2.5400    2.5500
    2.5600    2.5700    2.5800    2.5900    2.6000    2.6100    2.6200    2.6300
    2.6400    2.6500    2.6600    2.6700    2.6800    2.6900    2.7000    2.7100
    2.7200    2.7300    2.7400    2.7500    2.7600    2.7700    2.7800    2.7900
    2.8000    2.8100    2.8200    2.8300    2.8400    2.8500    2.8600    2.8700
    2.8800    2.8900    2.9000    2.9100    2.9200    2.9300    2.9400    2.9500
    2.9600    2.9700    2.9800    2.9900    3.0000    3.0100    3.0200    3.0300
    3.0400    3.0500    3.0600    3.0700    3.0800    3.0900    3.1000    3.1100
    3.1200    3.1300    3.1400    3.1500    3.1600    3.1700    3.1800    3.1900
    3.2000    3.2100    3.2200    3.2300    3.2400    3.2500    3.2600    3.2700
    3.2800    3.2900    3.3000    3.3100    3.3200    3.3300    3.3400    3.3500
    3.3600    3.3700    3.3800    3.3900    3.4000    3.4100    3.4200    3.4300
    3.4400    3.4500    3.4600    3.4700    3.4800    3.4900    3.5000    3.5100
    3.5200    3.5300    3.5400    3.5500    3.5600    3.5700    3.5800    3.5900
    3.6000    3.6100    3.6200    3.6300    3.6400    3.6500    3.6600    3.6700
    3.6800    3.6900    3.7000    3.7100    3.7200    3.7300    3.7400    3.7500
    3.7600    3.7700    3.7800    3.7900    3.8000    3.8100    3.8200    3.8300
    3.8400    3.8500    3.8600    3.8700    3.8800    3.8900    3.9000    3.9100
    3.9200    3.9300    3.9400    3.9500    3.9600    3.9700    3.9800    3.9900
    4.0000    4.0100    4.0200    4.0300    4.0400    4.0500    4.0600    4.0700
    4.0800    4.0900    4.1000    4.1100    4.1200    4.1300    4.1400    4.1500
    4.1600    4.1700    4.1800    4.1900    4.2000    4.2100    4.2200    4.2300
    4.2400    4.2500    4.2600    4.2700    4.2800    4.2900    4.3000    4.3100
    4.3200    4.3300    4.3400    4.3500    4.3600    4.3700    4.3800    4.3900
    4.4000    4.4100    4.4200    4.4300    4.4400    4.4500    4.4600    4.4700
    4.4800    4.4900    4.5000    4.5100    4.5200    4.5300    4.5400    4.5500
    4.5600    4.5700    4.5800    4.5900    4.6000    4.6100    4.6200    4.6300
    4.6400    4.6500    4.6600    4.6700    4.6800    4.6900    4.7000    4.7100
    4.7200    4.7300    4.7400    4.7500    4.7600    4.7700    4.7800    4.7900
    4.8000    4.8100    4.8200    4.8300    4.8400    4.8500    4.8600    4.8700
    4.8800    4.8900    4.9000    4.9100    4.9200    4.9300    4.9400    4.9500
    4.9600    4.9700    4.9800    4.9900    5.0000    5.0100    5.0200    5.0300
    5.0400    5.0500    5.0600    5.0700    5.0800    5.0900    5.1000    5.1100
    5.1200    5.1300    5.1400    5.1500    5.1600    5.1700    5.1800    5.1900
    5.2000    5.2100    5.2200    5.2300    5.2400    5.2500    5.2600    5.2700
    5.2800    5.2900    5.3000    5.3100    5.3200    5.3300    5.3400    5.3500
    5.3600    5.3700    5.3800    5.3900    5.4000    5.4100    5.4200    5.4300
    5.4400    5.4500    5.4600    5.4700    5.4800    5.4900    5.5000    5.5100
    5.5200    5.5300    5.5400    5.5500    5.5600    5.5700    5.5800    5.5900
    5.6000    5.6100    5.6200    5.6300    5.6400    5.6500    5.6600    5.6700
    5.6800    5.6900    5.7000    5.7100    5.7200    5.7300    5.7400    5.7500
    5.7600    5.7700    5.7800    5.7900    5.8000    5.8100    5.8200    5.8300
    5.8400    5.8500    5.8600    5.8700    5.8800    5.8900    5.9000    5.9100
    5.9200    5.9300    5.9400    5.9500    5.9600    5.9700    5.9800    5.9900
    6.0000    6.0100    6.0200    6.0300    6.0400    6.0500    6.0600    6.0700
    6.0800    6.0900    6.1000    6.1100    6.1200    6.1300    6.1400    6.1500
    6.1600    6.1700    6.1800    6.1900    6.2000    6.2100    6.2200    6.2300
    6.2400    6.2500    6.2600    6.2700    6.2800    6.2900    6.3000    6.3100
    6.3200    6.3300    6.3400    6.3500    6.3600    6.3700    6.3800    6.3900
    6.4000    6.4100    6.4200    6.4300    6.4400    6.4500    6.4600    6.4700
    6.4800    6.4900    6.5000    6.5100    6.5200    6.5300    6.5400    6.5500
    6.5600    6.5700    6.5800    6.5900    6.6000    6.6100    6.6200    6.6300
    6.6400    6.6500    6.6600    6.6700    6.6800    6.6900    6.7000    6.7100
    6.7200    6.7300    6.7400    6.7500    6.7600    6.7700    6.7800    6.7900
    6.8000    6.8100    6.8200    6.8300    6.8400    6.8500    6.8600    6.8700
    6.8800    6.8900    6.9000    6.9100    6.9200    6.9300    6.9400    6.9500
    6.9600    6.9700    6.9800    6.9900    7.0000    7.0100    7.0200    7.0300
    7.0400    7.0500    7.0600    7.0700    7.0800    7.0900    7.1000    7.1100
    7.1200    7.1300    7.1400    7.1500    7.1600    7.1700    7.1800    7.1900
    7.2000    7.2100    7.2200    7.2300    7.2400    7.2500    7.2600    7.2700
    7.2800    7.2900    7.3000    7.3100
   </PP_R>
   <PP_RAB type="real"  size=" 732" columns="8">
    0.0100    0.0100    0.0100    0.0100    0.0100    0.0100    0.0100    0.0100
    0.0100    0.0100    0.0100    0.0100    0.0100    0.0100    0.0100    0.0100
    0.0100    0.0100    0.0100    0.0100    0.0100    0.0100    0.0100    0.0100
    0.0100    0.0100    0.0100    0.0100    0.0100    0.0100    0.0100    0.0100
    0.0100    0.0100    0.0100    0.0100    0.0100    0.0100    0.0100    0.0100
    0.0100    0.0100    0.0100    0.0100    0.0100    0.0100    0.0100    0.0100
    0.0100    0.0100    0.0100    0.0100    0.0100    0.0100    0.0100    0.0100
    0.0100    0.0100    0.0100    0.0100    0.0100    0.0100    0.0100    0.0100
    0.0100    0.0100    0.0100    0.0100    0.0100    0.0100    0.0100    0.0100
    0.0100    0.0100    0.0100    0.0100    0.0100    0.0100    0.0100    0.0100
    0.0100    0.0100    0.0100    0.0100    0.0100    0.0100    0.0100    0.0100
    0.0100    0.0100    0.0100    0.0100    0.0100    0.0100    0.0100    0.0100
    0.0100    0.0100    0.0100    0.0100    0.0100    0.0100    0.0100    0.0100
    0.0100    0.0100    0.0100    0.0100    0.0100    0.0100    0.0100    0.0100
    0.0100    0.0100    0.0100    0.0100    0.0100    0.0100    0.0100    0.0100
    0.0100    0.0100    0.0100    0.0100    0.0100    0.0100    0.0100    0.0100
    0.0100    0.0100    0.0100    0.0100    0.0100    0.0100    0.0100    0.0100
    0.0100    0.0100    0.0100    0.0100    0.0100    0.0100    0.0100    0.0100
    0.0100    0.0100    0.0100    0.0100    0.0100    0.0100    0.0100    0.0100
    0.0100    0.0100    0.0100    0.0100    0.0100    0.0100    0.0100    0.0100
    0.0100    0.0100    0.0100    0.0100    0.0100    0.0100    0.0100    0.0100
    0.0100    0.0100    0.0100    0.0100    0.0100    0.0100    0.0100    0.0100
    0.0100    0.0100    0.0100    0.0100    0.0100    0.0100    0.0100    0.0100
    0.0100    0.0100    0.0100    0.0100    0.0100    0.0100    0.0100    0.0100
    0.0100    0.0100    0.0100    0.0100    0.0100    0.0100    0.0100    0.0100
    0.0100    0.0100    0.0100    0.0100    0.0100    0.0100    0.0100    0.0100
    0.0100    0.0100    0.0100    0.0100    0.0100    0.0100    0.0100    0.0100
    0.0100    0.0100    0.0100    0.0100    0.0100    0.0100    0.0100    0.0100
    0.0100    0.0100    0.0100    0.0100    0.0100    0.0100    0.0100    0.0100
    0.0100    0.0100    0.0100    0.0100    0.0100    0.0100    0.0100    0.0100
    0.0100    0.0100    0.0100    0.0100    0.0100    0.0100    0.0100    0.0100
    0.0100    0.0100    0.0100    0.0100    0.0100    0.0100    0.0100    0.0100
    0.0100    0.0100    0.0100    0.0100    0.0100    0.0100    0.0100    0.0100
    0.0100    0.0100    0.0100    0.0100    0.0100    0.0100    0.0100    0.0100
    0.0100    0.0100    0.0100    0.0100    0.0100    0.0100    0.0100    0.0100
    0.0100    0.0100    0.0100    0.0100    0.0100    0.0100    0.0100    0.0100
    0.0100    0.0100    0.0100    0.0100    0.0100    0.0100    0.0100    0.0100
    0.0100    0.0100    0.0100    0.0100    0.0100    0.0100    0.0100    0.0100
    0.0100    0.0100    0.0100    0.0100    0.0100    0.0100    0.0100    0.0100
    0.0100    0.0100    0.0100    0.0100    0.0100    0.0100    0.0100    0.0100
    0.0100    0.0100    0.0100    0.0100    0.0100    0.0100    0.0100    0.0100
    0.0100    0.0100    0.0100    0.0100    0.0100    0.0100    0.0100    0.0100
    0.0100    0.0100    0.0100    0.0100    0.0100    0.0100    0.0100    0.0100
    0.0100    0.0100    0.0100    0.0100    0.0100    0.0100    0.0100    0.0100
    0.0100    0.0100    0.0100    0.0100    0.0100    0.0100    0.0100    0.0100
    0.0100    0.0100    0.0100    0.0100    0.0100    0.0100    0.0100    0.0100
    0.0100    0.0100    0.0100    0.0100    0.0100    0.0100    0.0100    0.0100
    0.0100    0.0100    0.0100    0.0100    0.0100    0.0100    0.0100    0.0100
    0.0100    0.0100    0.0100    0.0100    0.0100    0.0100    0.0100    0.0100
    0.0100    0.0100    0.0100    0.0100    0.0100    0.0100    0.0100    0.0100
    0.0100    0.0100    0.0100    0.0100    0.0100    0.0100    0.0100    0.0100
    0.0100    0.0100    0.0100    0.0100    0.0100    0.0100    0.0100    0.0100
    0.0100    0.0100    0.0100    0.0100    0.0100    0.0100    0.0100    0.0100
    0.0100    0.0100    0.0100    0.0100    0.0100    0.0100    0.0100    0.0100
    0.0100    0.0100    0.0100    0.0100    0.0100    0.0100    0.0100    0.0100
    0.0100    0.0100    0.0100    0.0100    0.0100    0.0100    0.0100    0.0100
    0.0100    0.0100    0.0100    0.0100    0.0100    0.0100    0.0100    0.0100
    0.0100    0.0100    0.0100    0.0100    0.0100    0.0100    0.0100    0.0100
    0.0100    0.0100    0.0100    0.0100    0.0100    0.0100    0.0100    0.0100
    0.0100    0.0100    0.0100    0.0100    0.0100    0.0100    0.0100    0.0100
    0.0100    0.0100    0.0100    0.0100    0.0100    0.0100    0.0100    0.0100
    0.0100    0.0100    0.0100    0.0100    0.0100    0.0100    0.0100    0.0100
    0.0100    0.0100    0.0100    0.0100    0.0100    0.0100    0.0100    0.0100
    0.0100    0.0100    0.0100    0.0100    0.0100    0.0100    0.0100    0.0100
    0.0100    0.0100    0.0100    0.0100    0.0100    0.0100    0.0100    0.0100
    0.0100    0.0100    0.0100    0.0100    0.0100    0.0100    0.0100    0.0100
    0.0100    0.0100    0.0100    0.0100    0.0100    0.0100    0.0100    0.0100
    0.0100    0.0100    0.0100    0.0100    0.0100    0.0100    0.0100    0.0100
    0.0100    0.0100    0.0100    0.0100    0.0100    0.0100    0.0100    0.0100
    0.0100    0.0100    0.0100    0.0100    0.0100    0.0100    0.0100    0.0100
    0.0100    0.0100    0.0100    0.0100    0.0100    0.0100    0.0100    0.0100
    0.0100    0.0100    0.0100    0.0100    0.0100    0.0100    0.0100    0.0100
    0.0100    0.0100    0.0100    0.0100    0.0100    0.0100    0.0100    0.0100
    0.0100    0.0100    0.0100    0.0100    0.0100    0.0100    0.0100    0.0100
    0.0100    0.0100    0.0100    0.0100    0.0100    0.0100    0.0100    0.0100
    0.0100    0.0100    0.0100    0.0100    0.0100    0.0100    0.0100    0.0100
    0.0100    0.0100    0.0100    0.0100    0.0100    0.0100    0.0100    0.0100
    0.0100    0.0100    0.0100    0.0100    0.0100    0.0100    0.0100    0.0100
    0.0100    0.0100    0.0100    0.0100    0.0100    0.0100    0.0100    0.0100
    0.0100    0.0100    0.0100    0.0100    0.0100    0.0100    0.0100    0.0100
    0.0100    0.0100    0.0100    0.0100    0.0100    0.0100    0.0100    0.0100
    0.0100    0.0100    0.0100    0.0100    0.0100    0.0100    0.0100    0.0100
    0.0100    0.0100    0.0100    0.0100    0.0100    0.0100    0.0100    0.0100
    0.0100    0.0100    0.0100    0.0100    0.0100    0.0100    0.0100    0.0100
    0.0100    0.0100    0.0100    0.0100    0.0100    0.0100    0.0100    0.0100
    0.0100    0.0100    0.0100    0.0100    0.0100    0.0100    0.0100    0.0100
    0.0100    0.0100    0.0100    0.0100    0.0100    0.0100    0.0100    0.0100
    0.0100    0.0100    0.0100    0.0100    0.0100    0.0100    0.0100    0.0100
    0.0100    0.0100    0.0100    0.0100    0.0100    0.0100    0.0100    0.0100
    0.0100    0.0100    0.0100    0.0100    0.0100    0.0100    0.0100    0.0100
    0.0100    0.0100    0.0100    0.0100    0.0100    0.0100    0.0100    0.0100
    0.0100    0.0100    0.0100    0.0100
   </PP_RAB>
 </PP_MESH>
  <PP_LOCAL type="real"  size=" 732" columns="4">
   -9.5979420924E+00   -9.5967093808E+00   -9.5930124587E+00   -9.5868549530E+00
   -9.5782429043E+00   -9.5671847592E+00   -9.5536913606E+00   -9.5377759340E+00
   -9.5194540720E+00   -9.4987437154E+00   -9.4756651318E+00   -9.4502408908E+00
   -9.4224958376E+00   -9.3924570624E+00   -9.3601538686E+00   -9.3256177369E+00
   -9.2888822882E+00   -9.2499832430E+00   -9.2089583784E+00   -9.1658474832E+00
   -9.1206923100E+00   -9.0735365252E+00   -9.0244256568E+00   -8.9734070398E+00
   -8.9205297593E+00   -8.8658445921E+00   -8.8094039454E+00   -8.7512617941E+00
   -8.6914736160E+00   -8.6300963250E+00   -8.5671882026E+00   -8.5028088280E+00
   -8.4370190055E+00   -8.3698806912E+00   -8.3014569181E+00   -8.2318117186E+00
   -8.1610100472E+00   -8.0891177001E+00   -8.0162012346E+00   -7.9423278865E+00
   -7.8675654866E+00   -7.7919823758E+00   -7.7156473188E+00   -7.6386294169E+00
   -7.5609980196E+00   -7.4828226352E+00   -7.4041728398E+00   -7.3251181858E+00
   -7.2457281096E+00   -7.1660718371E+00   -7.0862182895E+00   -7.0062359877E+00
   -6.9261929551E+00   -6.8461566205E+00   -6.7661937191E+00   -6.6863701934E+00
   -6.6067510921E+00   -6.5274004691E+00   -6.4483812810E+00   -6.3697552834E+00
   -6.2915829269E+00   -6.2139232513E+00   -6.1368337797E+00   -6.0603704104E+00
   -5.9845873091E+00   -5.9095367988E+00   -5.8352692496E+00   -5.7618329664E+00
   -5.6892740766E+00   -5.6176364155E+00   -5.5469614114E+00   -5.4772879688E+00
   -5.4086523508E+00   -5.3410880600E+00   -5.2746257456E+00   -5.2092923241E+00
   -5.1451181273E+00   -5.0820881437E+00   -5.0202075665E+00   -4.9595600756E+00
   -4.9001274883E+00   -4.8419220937E+00   -4.7849462115E+00   -4.7291989817E+00
   -4.6746753225E+00   -4.6213658497E+00   -4.5692567377E+00   -4.5183295787E+00
   -4.4685612390E+00   -4.4199237554E+00   -4.3723840242E+00   -4.3259054748E+00
   -4.2804515484E+00   -4.2359873786E+00   -4.1924795262E+00   -4.1498959510E+00
   -4.1082059420E+00   -4.0673800509E+00   -4.0273900314E+00   -3.9882087831E+00
   -3.9498102972E+00   -3.9121696069E+00   -3.8752627404E+00   -3.8390666763E+00
   -3.8035593022E+00   -3.7687193748E+00   -3.7345264834E+00   -3.7009610144E+00
   -3.6680041179E+00   -3.6356376764E+00   -3.6038442748E+00   -3.5726071719E+00
   -3.5419102735E+00   -3.5117381063E+00   -3.4820757934E+00   -3.4529090311E+00
   -3.4242240658E+00   -3.3960076730E+00   -3.3682471361E+00   -3.3409302270E+00
   -3.3140451867E+00   -3.2875807073E+00   -3.2615259137E+00   -3.2358703471E+00
   -3.2106039481E+00   -3.1857170413E+00   -3.1612003194E+00   -3.1370448284E+00
   -3.1132419536E+00   -3.0897834054E+00   -3.0666612056E+00   -3.0438676749E+00
   -3.0213954195E+00   -2.9992373196E+00   -2.9773865170E+00   -2.9558364037E+00
   -2.9345806112E+00   -2.9136129990E+00   -2.8929276447E+00   -2.8725188337E+00
   -2.8523810497E+00   -2.8325089649E+00   -2.8128974315E+00   -2.7935414723E+00
   -2.7744362727E+00   -2.7555771727E+00   -2.7369596586E+00   -2.7185793561E+00
   -2.7004320228E+00   -2.6825135414E+00   -2.6648199134E+00   -2.6473472523E+00
   -2.6300917783E+00   -2.6130498122E+00   -2.5962177702E+00   -2.5795921586E+00
   -2.5631695692E+00   -2.5469466749E+00   -2.5309202249E+00   -2.5150870413E+00
   -2.4994440146E+00   -2.4839881011E+00   -2.4687163188E+00   -2.4536257447E+00
   -2.4387135121E+00   -2.4239768078E+00   -2.4094128697E+00   -2.3950189847E+00
   -2.3807924867E+00   -2.3667307546E+00   -2.3528312111E+00   -2.3390913207E+00
   -2.3255085887E+00   -2.3120805598E+00   -2.2988048173E+00   -2.2856789821E+00
   -2.2727007119E+00   -2.2598677004E+00   -2.2471776770E+00   -2.2346284061E+00
   -2.2222176866E+00   -2.2099433518E+00   -2.1978032690E+00   -2.1857953392E+00
   -2.1739174972E+00   -2.1621677111E+00   -2.1505439824E+00   -2.1390443458E+00
   -2.1276668693E+00   -2.1164096539E+00   -2.1052708336E+00   -2.0942485754E+00
   -2.0833410790E+00   -2.0725465768E+00   -2.0618633338E+00   -2.0512896473E+00
   -2.0408238468E+00   -2.0304642934E+00   -2.0202093801E+00   -2.0100575307E+00
   -2.0000072000E+00   -1.9900568732E+00   -1.9802050649E+00   -1.9704503193E+00
   -1.9607912090E+00   -1.9512263344E+00   -1.9417543232E+00   -1.9323738296E+00
   -1.9230835337E+00   -1.9138821406E+00   -1.9047683804E+00   -1.8957410071E+00
   -1.8867987982E+00   -1.8779405542E+00   -1.8691650980E+00   -1.8604712744E+00
   -1.8518579496E+00   -1.8433240107E+00   -1.8348683653E+00   -1.8264899408E+00
   -1.8181876843E+00   -1.8099605616E+00   -1.8018075576E+00   -1.7937276751E+00
   -1.7857199347E+00   -1.7777833747E+00   -1.7699170500E+00   -1.7621200325E+00
   -1.7543914102E+00   -1.7467302871E+00   -1.7391357828E+00   -1.7316070321E+00
   -1.7241431847E+00   -1.7167434050E+00   -1.7094068715E+00   -1.7021327769E+00
   -1.6949203275E+00   -1.6877687428E+00   -1.6806772558E+00   -1.6736451120E+00
   -1.6666715696E+00   -1.6597558993E+00   -1.6528973834E+00   -1.6460953165E+00
   -1.6393490044E+00   -1.6326577645E+00   -1.6260209251E+00   -1.6194378255E+00
   -1.6129078156E+00   -1.6064302558E+00   -1.6000045167E+00   -1.5936299788E+00
   -1.5873060327E+00   -1.5810320785E+00   -1.5748075256E+00   -1.5686317930E+00
   -1.5625043084E+00   -1.5564245087E+00   -1.5503918393E+00   -1.5444057545E+00
   -1.5384657166E+00   -1.5325711963E+00   -1.5267216726E+00   -1.5209166320E+00
   -1.5151555692E+00   -1.5094379862E+00   -1.5037633927E+00   -1.4981313057E+00
   -1.4925412492E+00   -1.4869927547E+00   -1.4814853602E+00   -1.4760186108E+00
   -1.4705920582E+00   -1.4652052607E+00   -1.4598577829E+00   -1.4545491961E+00
   -1.4492790773E+00   -1.4440470101E+00   -1.4388525837E+00   -1.4336953934E+00
   -1.4285750403E+00   -1.4234911311E+00   -1.4184432780E+00   -1.4134310990E+00
   -1.4084542170E+00   -1.4035122606E+00   -1.3986048634E+00   -1.3937316642E+00
   -1.3888923068E+00   -1.3840864397E+00   -1.3793137167E+00   -1.3745737959E+00
   -1.3698663404E+00   -1.3651910178E+00   -1.3605475002E+00   -1.3559354641E+00
   -1.3513545905E+00   -1.3468045646E+00   -1.3422850758E+00   -1.3377958178E+00
   -1.3333364882E+00   -1.3289067887E+00   -1.3245064251E+00   -1.3201351069E+00
   -1.3157925473E+00   -1.3114784637E+00   -1.3071925767E+00   -1.3029346108E+00
   -1.2987042941E+00   -1.2945013581E+00   -1.2903255379E+00   -1.2861765719E+00
   -1.2820542019E+00   -1.2779581730E+00   -1.2738882334E+00   -1.2698441348E+00
   -1.2658256317E+00   -1.2618324821E+00   -1.2578644466E+00   -1.2539212892E+00
   -1.2500027765E+00   -1.2461086782E+00   -1.2422387669E+00   -1.2383928180E+00
   -1.2345706095E+00   -1.2307719224E+00   -1.2269965401E+00   -1.2232442488E+00
   -1.2195148374E+00   -1.2158080973E+00   -1.2121238222E+00   -1.2084618087E+00
   -1.2048218555E+00   -1.2012037639E+00   -1.1976073376E+00   -1.1940323825E+00
   -1.1904787069E+00   -1.1869461215E+00   -1.1834344389E+00   -1.1799434742E+00
   -1.1764730446E+00   -1.1730229695E+00   -1.1695930703E+00   -1.1661831705E+00
   -1.1627930958E+00   -1.1594226737E+00   -1.1560717338E+00   -1.1527401077E+00
   -1.1494276289E+00   -1.1461341328E+00   -1.1428594567E+00   -1.1396034397E+00
   -1.1363659229E+00   -1.1331467490E+00   -1.1299457625E+00   -1.1267628097E+00
   -1.1235977387E+00   -1.1204503993E+00   -1.1173206427E+00   -1.1142083221E+00
   -1.1111132923E+00   -1.1080354094E+00   -1.1049745314E+00   -1.1019305178E+00
   -1.0989032295E+00   -1.0958925292E+00   -1.0928982807E+00   -1.0899203497E+00
   -1.0869586032E+00   -1.0840129095E+00   -1.0810831384E+00   -1.0781691613E+00
   -1.0752708508E+00   -1.0723880808E+00   -1.0695207267E+00   -1.0666686651E+00
   -1.0638317741E+00   -1.0610099330E+00   -1.0582030222E+00   -1.0554109237E+00
   -1.0526335204E+00   -1.0498706967E+00   -1.0471223380E+00   -1.0443883311E+00
   -1.0416685638E+00   -1.0389629252E+00   -1.0362713055E+00   -1.0335935960E+00
   -1.0309296891E+00   -1.0282794783E+00   -1.0256428585E+00   -1.0230197251E+00
   -1.0204099752E+00   -1.0178135064E+00   -1.0152302176E+00   -1.0126600088E+00
   -1.0101027809E+00   -1.0075584358E+00   -1.0050268763E+00   -1.0025080063E+00
   -1.0000017307E+00   -9.9750795529E-01   -9.9502658669E-01   -9.9255753259E-01
   -9.9010070153E-01   -9.8765600299E-01   -9.8522334730E-01   -9.8280264571E-01
   -9.8039381031E-01   -9.7799675407E-01   -9.7561139079E-01   -9.7323763514E-01
   -9.7087540258E-01   -9.6852460941E-01   -9.6618517274E-01   -9.6385701047E-01
   -9.6154004130E-01   -9.5923418470E-01   -9.5693936092E-01   -9.5465549096E-01
   -9.5238249658E-01   -9.5012030028E-01   -9.4786882530E-01   -9.4562799561E-01
   -9.4339773587E-01   -9.4117797149E-01   -9.3896862854E-01   -9.3676963381E-01
   -9.3458091476E-01   -9.3240239955E-01   -9.3023401697E-01   -9.2807569650E-01
   -9.2592736827E-01   -9.2378896303E-01   -9.2166041221E-01   -9.1954164784E-01
   -9.1743260258E-01   -9.1533320971E-01   -9.1324340312E-01   -9.1116311729E-01
   -9.0909228732E-01   -9.0703084888E-01   -9.0497873822E-01   -9.0293589217E-01
   -9.0090224815E-01   -8.9887774411E-01   -8.9686231857E-01   -8.9485591060E-01
   -8.9285845982E-01   -8.9086990637E-01   -8.8889019096E-01   -8.8691925477E-01
   -8.8495703955E-01   -8.8300348755E-01   -8.8105854150E-01   -8.7912214468E-01
   -8.7719424084E-01   -8.7527477422E-01   -8.7336368955E-01   -8.7146093207E-01
   -8.6956644745E-01   -8.6768018186E-01   -8.6580208193E-01   -8.6393209475E-01
   -8.6207016787E-01   -8.6021624929E-01   -8.5837028745E-01   -8.5653223123E-01
   -8.5470202996E-01   -8.5287963340E-01   -8.5106499172E-01   -8.4925805554E-01
   -8.4745877588E-01   -8.4566710417E-01   -8.4388299226E-01   -8.4210639242E-01
   -8.4033725729E-01   -8.3857553992E-01   -8.3682119376E-01   -8.3507417265E-01
   -8.3333443080E-01   -8.3160192282E-01   -8.2987660367E-01   -8.2815842871E-01
   -8.2644735365E-01   -8.2474333458E-01   -8.2304632795E-01   -8.2135629055E-01
   -8.1967317953E-01   -8.1799695242E-01   -8.1632756706E-01   -8.1466498165E-01
   -8.1300915472E-01   -8.1136004515E-01   -8.0971761215E-01   -8.0808181525E-01
   -8.0645261431E-01   -8.0482996952E-01   -8.0321384138E-01   -8.0160419072E-01
   -8.0000097867E-01   -7.9840416668E-01   -7.9681371649E-01   -7.9522959017E-01
   -7.9365175008E-01   -7.9208015886E-01   -7.9051477948E-01   -7.8895557517E-01
   -7.8740250947E-01   -7.8585554619E-01   -7.8431464945E-01   -7.8277978362E-01
   -7.8125091337E-01   -7.7972800364E-01   -7.7821101963E-01   -7.7669992683E-01
   -7.7519469098E-01   -7.7369527811E-01   -7.7220165449E-01   -7.7071378664E-01
   -7.6923164138E-01   -7.6775518574E-01   -7.6628438702E-01   -7.6481921279E-01
   -7.6335963083E-01   -7.6190560919E-01   -7.6045711615E-01   -7.5901412026E-01
   -7.5757659026E-01   -7.5614449517E-01   -7.5471780421E-01   -7.5329648687E-01
   -7.5188051283E-01   -7.5046985203E-01   -7.4906447461E-01   -7.4766435094E-01
   -7.4626945162E-01   -7.4487974746E-01   -7.4349520950E-01   -7.4211580898E-01
   -7.4074151736E-01   -7.3937230631E-01   -7.3800814770E-01   -7.3664901363E-01
   -7.3529487638E-01   -7.3394570845E-01   -7.3260148254E-01   -7.3126217153E-01
   -7.2992774853E-01   -7.2859818683E-01   -7.2727345990E-01   -7.2595354142E-01
   -7.2463840527E-01   -7.2332802549E-01   -7.2202237634E-01   -7.2072143223E-01
   -7.1942516779E-01   -7.1813355781E-01   -7.1684657726E-01   -7.1556420130E-01
   -7.1428640526E-01   -7.1301316465E-01   -7.1174445515E-01   -7.1048025263E-01
   -7.0922053310E-01   -7.0796527276E-01   -7.0671444797E-01   -7.0546803528E-01
   -7.0422601137E-01   -7.0298835310E-01   -7.0175503751E-01   -7.0052604176E-01
   -6.9930134321E-01   -6.9808091936E-01   -6.9686474786E-01   -6.9565280654E-01
   -6.9444507335E-01   -6.9324152642E-01   -6.9204214401E-01   -6.9084690456E-01
   -6.8965578664E-01   -6.8846876895E-01   -6.8728583037E-01   -6.8610694991E-01
   -6.8493210671E-01   -6.8376128008E-01   -6.8259444945E-01   -6.8143159441E-01
   -6.8027269466E-01   -6.7911773006E-01   -6.7796668060E-01   -6.7681952641E-01
   -6.7567624775E-01   -6.7453682501E-01   -6.7340123872E-01   -6.7226946953E-01
   -6.7114149824E-01   -6.7001730575E-01   -6.6889687310E-01   -6.6778018148E-01
   -6.6666721216E-01   -6.6555794658E-01   -6.6445236628E-01   -6.6335045291E-01
   -6.6225218827E-01   -6.6115755427E-01   -6.6006653293E-01   -6.5897910639E-01
   -6.5789525692E-01   -6.5681496690E-01   -6.5573821882E-01   -6.5466499528E-01
   -6.5359527903E-01   -6.5252905288E-01   -6.5146629979E-01   -6.5040700281E-01
   -6.4935114512E-01   -6.4829870998E-01   -6.4724968080E-01   -6.4620404105E-01
   -6.4516177434E-01   -6.4412286437E-01   -6.4308729496E-01   -6.4205505001E-01
   -6.4102611355E-01   -6.4000046969E-01   -6.3897810266E-01   -6.3795899677E-01
   -6.3694313645E-01   -6.3593050621E-01   -6.3492109069E-01   -6.3391487458E-01
   -6.3291184271E-01   -6.3191197998E-01   -6.3091527140E-01   -6.2992170207E-01