<UPF version="2.0.1">
  <PP_INFO>

 This pseudopotential file has been produced using the code
 ONCVPSP  (Optimized Norm-Conservinng Vanderbilt PSeudopotential)
 scalar-relativistic version 3.3.1 12/12/2017 by D. R. Hamann
 The code is available through a link at URL www.mat-simresearch.com.
 Documentation with the package provides a full discription of the
 input data below.


 While it is not required under the terms of the GNU GPL, it is
 suggested that you cite D. R. Hamann, Phys. Rev. B 88, 085117 (2013)
 in any publication using these pseudopotentials.

    <PP_INPUTFILE>
# ATOM AND REFERENCE CONFIGURATION
# atsym  z   nc   nv     iexc    psfile
  O  8.00    1    2       3      upf
#
#   n    l    f        energy (Ha)
    1    0    2.00
    2    0    2.00
    2    1    4.00
#
# PSEUDOPOTENTIAL AND OPTIMIZATION
# lmax
    1
#
#   l,   rc,      ep,       ncon, nbas, qcut
    0   1.29195  -0.87291    5    8   8.98916
    1   1.47310  -0.33804    5    8   9.14990
#
# LOCAL POTENTIAL
# lloc, lpopt,  rc(5),   dvloc0
    4    5   0.90330      0.00000
#
# VANDERBILT-KLEINMAN-BYLANDER PROJECTORs
# l, nproj, debl
    0    2   1.51851
    1    2   1.53631
#
# MODEL CORE CHARGE
# icmod, fcfact, rcfact
    0   0.00000   0.00000
#
# LOG DERIVATIVE ANALYSIS
# epsh1, epsh2, depsh
   -5.00    3.00    0.02
#
# OUTPUT GRID
# rlmax, drl
    6.00    0.01
#
# TEST CONFIGURATIONS
# ncnf
    0
# nvcnf
#   n    l    f
    </PP_INPUTFILE>
  </PP_INFO>
  <!--                               -->
  <!-- END OF HUMAN READABLE SECTION -->
  <!--                               -->
    <PP_HEADER
       generated="Generated using ONCVPSP code by D. R. Hamann"
       author="anonymous"
       date="200721"
       comment=""
       element="O "
       pseudo_type="NC"
       relativistic="scalar"
       is_ultrasoft="F"
       is_paw="F"
       is_coulomb="F"
       has_so="F"
       has_wfc="F"
       has_gipaw="F"
       core_correction="F"
       functional="PZ"
       z_valence="    6.00"
       total_psenergy="  -3.13534977106E+01"
       rho_cutoff="   9.25000000000E+00"
       l_max="1"
       l_local="-1"
       mesh_size="   926"
       number_of_wfc="2"
       number_of_proj="4"/>
 <PP_MESH>
   <PP_R type="real"  size=" 926" columns="8">
    0.0000    0.0100    0.0200    0.0300    0.0400    0.0500    0.0600    0.0700
    0.0800    0.0900    0.1000    0.1100    0.1200    0.1300    0.1400    0.1500
    0.1600    0.1700    0.1800    0.1900    0.2000    0.2100    0.2200    0.2300
    0.2400    0.2500    0.2600    0.2700    0.2800    0.2900    0.3000    0.3100
    0.3200    0.3300    0.3400    0.3500    0.3600    0.3700    0.3800    0.3900
    0.4000    0.4100    0.4200    0.4300    0.4400    0.4500    0.4600    0.4700
    0.4800    0.4900    0.5000    0.5100    0.5200    0.5300    0.5400    0.5500
    0.5600    0.5700    0.5800    0.5900    0.6000    0.6100    0.6200    0.6300
    0.6400    0.6500    0.6600    0.6700    0.6800    0.6900    0.7000    0.7100
    0.7200    0.7300    0.7400    0.7500    0.7600    0.7700    0.7800    0.7900
    0.8000    0.8100    0.8200    0.8300    0.8400    0.8500    0.8600    0.8700
    0.8800    0.8900    0.9000    0.9100    0.9200    0.9300    0.9400    0.9500
    0.9600    0.9700    0.9800    0.9900    1.0000    1.0100    1.0200    1.0300
    1.0400    1.0500    1.0600    1.0700    1.0800    1.0900    1.1000    1.1100
    1.1200    1.1300    1.1400    1.1500    1.1600    1.1700    1.1800    1.1900
    1.2000    1.2100    1.2200    1.2300    1.2400    1.2500    1.2600    1.2700
    1.2800    1.2900    1.3000    1.3100    1.3200    1.3300    1.3400    1.3500
    1.3600    1.3700    1.3800    1.3900    1.4000    1.4100    1.4200    1.4300
    1.4400    1.4500    1.4600    1.4700    1.4800    1.4900    1.5000    1.5100
    1.5200    1.5300    1.5400    1.5500    1.5600    1.5700    1.5800    1.5900
    1.6000    1.6100    1.6200    1.6300    1.6400    1.6500    1.6600    1.6700
    1.6800    1.6900    1.7000    1.7100    1.7200    1.7300    1.7400    1.7500
    1.7600    1.7700    1.7800    1.7900    1.8000    1.8100    1.8200    1.8300
    1.8400    1.8500    1.8600    1.8700    1.8800    1.8900    1.9000    1.9100
    1.9200    1.9300    1.9400    1.9500    1.9600    1.9700    1.9800    1.9900
    2.0000    2.0100    2.0200    2.0300    2.0400    2.0500    2.0600    2.0700
    2.0800    2.0900    2.1000    2.1100    2.1200    2.1300    2.1400    2.1500
    2.1600    2.1700    2.1800    2.1900    2.2000    2.2100    2.2200    2.2300
    2.2400    2.2500    2.2600    2.2700    2.2800    2.2900    2.3000    2.3100
    2.3200    2.3300    2.3400    2.3500    2.3600    2.3700    2.3800    2.3900
    2.4000    2.4100    2.4200    2.4300    2.4400    2.4500    2.4600    2.4700
    2.4800    2.4900    2.5000    2.5100    2.5200    2.5300    2.5400    2.5500
    2.5600    2.5700    2.5800    2.5900    2.6000    2.6100    2.6200    2.6300
    2.6400    2.6500    2.6600    2.6700    2.6800    2.6900    2.7000    2.7100
    2.7200    2.7300    2.7400    2.7500    2.7600    2.7700    2.7800    2.7900
    2.8000    2.8100    2.8200    2.8300    2.8400    2.8500    2.8600    2.8700
    2.8800    2.8900    2.9000    2.9100    2.9200    2.9300    2.9400    2.9500
    2.9600    2.9700    2.9800    2.9900    3.0000    3.0100    3.0200    3.0300
    3.0400    3.0500    3.0600    3.0700    3.0800    3.0900    3.1000    3.1100
    3.1200    3.1300    3.1400    3.1500    3.1600    3.1700    3.1800    3.1900
    3.2000    3.2100    3.2200    3.2300    3.2400    3.2500    3.2600    3.2700
    3.2800    3.2900    3.3000    3.3100    3.3200    3.3300    3.3400    3.3500
    3.3600    3.3700    3.3800    3.3900    3.4000    3.4100    3.4200    3.4300
    3.4400    3.4500    3.4600    3.4700    3.4800    3.4900    3.5000    3.5100
    3.5200    3.5300    3.5400    3.5500    3.5600    3.5700    3.5800    3.5900
    3.6000    3.6100    3.6200    3.6300    3.6400    3.6500    3.6600    3.6700
    3.6800    3.6900    3.7000    3.7100    3.7200    3.7300    3.7400    3.7500
    3.7600    3.7700    3.7800    3.7900    3.8000    3.8100    3.8200    3.8300
    3.8400    3.8500    3.8600    3.8700    3.8800    3.8900    3.9000    3.9100
    3.9200    3.9300    3.9400    3.9500    3.9600    3.9700    3.9800    3.9900
    4.0000    4.0100    4.0200    4.0300    4.0400    4.0500    4.0600    4.0700
    4.0800    4.0900    4.1000    4.1100    4.1200    4.1300    4.1400    4.1500
    4.1600    4.1700    4.1800    4.1900    4.2000    4.2100    4.2200    4.2300
    4.2400    4.2500    4.2600    4.2700    4.2800    4.2900    4.3000    4.3100
    4.3200    4.3300    4.3400    4.3500    4.3600    4.3700    4.3800    4.3900
    4.4000    4.4100    4.4200    4.4300    4.4400    4.4500    4.4600    4.4700
    4.4800    4.4900    4.5000    4.5100    4.5200    4.5300    4.5400    4.5500
    4.5600    4.5700    4.5800    4.5900    4.6000    4.6100    4.6200    4.6300
    4.6400    4.6500    4.6600    4.6700    4.6800    4.6900    4.7000    4.7100
    4.7200    4.7300    4.7400    4.7500    4.7600    4.7700    4.7800    4.7900
    4.8000    4.8100    4.8200    4.8300    4.8400    4.8500    4.8600    4.8700
    4.8800    4.8900    4.9000    4.9100    4.9200    4.9300    4.9400    4.9500
    4.9600    4.9700    4.9800    4.9900    5.0000    5.0100    5.0200    5.0300
    5.0400    5.0500    5.0600    5.0700    5.0800    5.0900    5.1000    5.1100
    5.1200    5.1300    5.1400    5.1500    5.1600    5.1700    5.1800    5.1900
    5.2000    5.2100    5.2200    5.2300    5.2400    5.2500    5.2600    5.2700
    5.2800    5.2900    5.3000    5.3100    5.3200    5.3300    5.3400    5.3500
    5.3600    5.3700    5.3800    5.3900    5.4000    5.4100    5.4200    5.4300
    5.4400    5.4500    5.4600    5.4700    5.4800    5.4900    5.5000    5.5100
    5.5200    5.5300    5.5400    5.5500    5.5600    5.5700    5.5800    5.5900
    5.6000    5.6100    5.6200    5.6300    5.6400    5.6500    5.6600    5.6700
    5.6800    5.6900    5.7000    5.7100    5.7200    5.7300    5.7400    5.7500
    5.7600    5.7700    5.7800    5.7900    5.8000    5.8100    5.8200    5.8300
    5.8400    5.8500    5.8600    5.8700    5.8800    5.8900    5.9000    5.9100
    5.9200    5.9300    5.9400    5.9500    5.9600    5.9700    5.9800    5.9900
    6.0000    6.0100    6.0200    6.0300    6.0400    6.0500    6.0600    6.0700
    6.0800    6.0900    6.1000    6.1100    6.1200    6.1300    6.1400    6.1500
    6.1600    6.1700    6.1800    6.1900    6.2000    6.2100    6.2200    6.2300
    6.2400    6.2500    6.2600    6.2700    6.2800    6.2900    6.3000    6.3100
    6.3200    6.3300    6.3400    6.3500    6.3600    6.3700    6.3800    6.3900
    6.4000    6.4100    6.4200    6.4300    6.4400    6.4500    6.4600    6.4700
    6.4800    6.4900    6.5000    6.5100    6.5200    6.5300    6.5400    6.5500
    6.5600    6.5700    6.5800    6.5900    6.6000    6.6100    6.6200    6.6300
    6.6400    6.6500    6.6600    6.6700    6.6800    6.6900    6.7000    6.7100
    6.7200    6.7300    6.7400    6.7500    6.7600    6.7700    6.7800    6.7900
    6.8000    6.8100    6.8200    6.8300    6.8400    6.8500    6.8600    6.8700
    6.8800    6.8900    6.9000    6.9100    6.9200    6.9300    6.9400    6.9500
    6.9600    6.9700    6.9800    6.9900    7.0000    7.0100    7.0200    7.0300
    7.0400    7.0500    7.0600    7.0700    7.0800    7.0900    7.1000    7.1100
    7.1200    7.1300    7.1400    7.1500    7.1600    7.1700    7.1800    7.1900
    7.2000    7.2100    7.2200    7.2300    7.2400    7.2500    7.2600    7.2700
    7.2800    7.2900    7.3000    7.3100    7.3200    7.3300    7.3400    7.3500
    7.3600    7.3700    7.3800    7.3900    7.4000    7.4100    7.4200    7.4300
    7.4400    7.4500    7.4600    7.4700    7.4800    7.4900    7.5000    7.5100
    7.5200    7.5300    7.5400    7.5500    7.5600    7.5700    7.5800    7.5900
    7.6000    7.6100    7.6200    7.6300    7.6400    7.6500    7.6600    7.6700
    7.6800    7.6900    7.7000    7.7100    7.7200    7.7300    7.7400    7.7500
    7.7600    7.7700    7.7800    7.7900    7.8000    7.8100    7.8200    7.8300
    7.8400    7.8500    7.8600    7.8700    7.8800    7.8900    7.9000    7.9100
    7.9200    7.9300    7.9400    7.9500    7.9600    7.9700    7.9800    7.9900
    8.0000    8.0100    8.0200    8.0300    8.0400    8.0500    8.0600    8.0700
    8.0800    8.0900    8.1000    8.1100    8.1200    8.1300    8.1400    8.1500
    8.1600    8.1700    8.1800    8.1900    8.2000    8.2100    8.2200    8.2300
    8.2400    8.2500    8.2600    8.2700    8.2800    8.2900    8.3000    8.3100
    8.3200    8.3300    8.3400    8.3500    8.3600    8.3700    8.3800    8.3900
    8.4000    8.4100    8.4200    8.4300    8.4400    8.4500    8.4600    8.4700
    8.4800    8.4900    8.5000    8.5100    8.5200    8.5300    8.5400    8.5500
    8.5600    8.5700    8.5800    8.5900    8.6000    8.6100    8.6200    8.6300
    8.6400    8.6500    8.6600    8.6700    8.6800    8.6900    8.7000    8.7100
    8.7200    8.7300    8.7400    8.7500    8.7600    8.7700    8.7800    8.7900
    8.8000    8.8100    8.8200    8.8300    8.8400    8.8500    8.8600    8.8700
    8.8800    8.8900    8.9000    8.9100    8.9200    8.9300    8.9400    8.9500
    8.9600    8.9700    8.9800    8.9900    9.0000    9.0100    9.0200    9.0300
    9.0400    9.0500    9.0600    9.0700    9.0800    9.0900    9.1000    9.1100
    9.1200    9.1300    9.1400    9.1500    9.1600    9.1700    9.1800    9.1900
    9.2000    9.2100    9.2200    9.2300    9.2400    9.2500
   </PP_R>
   <PP_RAB type="real"  size=" 926" columns="8">
    0.0100    0.0100    0.0100    0.0100    0.0100    0.0100    0.0100    0.0100
    0.0100    0.0100    0.0100    0.0100    0.0100    0.0100    0.0100    0.0100
    0.0100    0.0100    0.0100    0.0100    0.0100    0.0100    0.0100    0.0100
    0.0100    0.0100    0.0100    0.0100    0.0100    0.0100    0.0100    0.0100
    0.0100    0.0100    0.0100    0.0100    0.0100    0.0100    0.0100    0.0100
    0.0100    0.0100    0.0100    0.0100    0.0100    0.0100    0.0100    0.0100
    0.0100    0.0100    0.0100    0.0100    0.0100    0.0100    0.0100    0.0100
    0.0100    0.0100    0.0100    0.0100    0.0100    0.0100    0.0100    0.0100
    0.0100    0.0100    0.0100    0.0100    0.0100    0.0100    0.0100    0.0100
    0.0100    0.0100    0.0100    0.0100    0.0100    0.0100    0.0100    0.0100
    0.0100    0.0100    0.0100    0.0100    0.0100    0.0100    0.0100    0.0100
    0.0100    0.0100    0.0100    0.0100    0.0100    0.0100    0.0100    0.0100
    0.0100    0.0100    0.0100    0.0100    0.0100    0.0100    0.0100    0.0100
    0.0100    0.0100    0.0100    0.0100    0.0100    0.0100    0.0100    0.0100
    0.0100    0.0100    0.0100    0.0100    0.0100    0.0100    0.0100    0.0100
    0.0100    0.0100    0.0100    0.0100    0.0100    0.0100    0.0100    0.0100
    0.0100    0.0100    0.0100    0.0100    0.0100    0.0100    0.0100    0.0100
    0.0100    0.0100    0.0100    0.0100    0.0100    0.0100    0.0100    0.0100
    0.0100    0.0100    0.0100    0.0100    0.0100    0.0100    0.0100    0.0100
    0.0100    0.0100    0.0100    0.0100    0.0100    0.0100    0.0100    0.0100
    0.0100    0.0100    0.0100    0.0100    0.0100    0.0100    0.0100    0.0100
    0.0100    0.0100    0.0100    0.0100    0.0100    0.0100    0.0100    0.0100
    0.0100    0.0100    0.0100    0.0100    0.0100    0.0100    0.0100    0.0100
    0.0100    0.0100    0.0100    0.0100    0.0100    0.0100    0.0100    0.0100
    0.0100    0.0100    0.0100    0.0100    0.0100    0.0100    0.0100    0.0100
    0.0100    0.0100    0.0100    0.0100    0.0100    0.0100    0.0100    0.0100
    0.0100    0.0100    0.0100    0.0100    0.0100    0.0100    0.0100    0.0100
    0.0100    0.0100    0.0100    0.0100    0.0100    0.0100    0.0100    0.0100
    0.0100    0.0100    0.0100    0.0100    0.0100    0.0100    0.0100    0.0100
    0.0100    0.0100    0.0100    0.0100    0.0100    0.0100    0.0100    0.0100
    0.0100    0.0100    0.0100    0.0100    0.0100    0.0100    0.0100    0.0100
    0.0100    0.0100    0.0100    0.0100    0.0100    0.0100    0.0100    0.0100
    0.0100    0.0100    0.0100    0.0100    0.0100    0.0100    0.0100    0.0100
    0.0100    0.0100    0.0100    0.0100    0.0100    0.0100    0.0100    0.0100
    0.0100    0.0100    0.0100    0.0100    0.0100    0.0100    0.0100    0.0100
    0.0100    0.0100    0.0100    0.0100    0.0100    0.0100    0.0100    0.0100
    0.0100    0.0100    0.0100    0.0100    0.0100    0.0100    0.0100    0.0100
    0.0100    0.0100    0.0100    0.0100    0.0100    0.0100    0.0100    0.0100
    0.0100    0.0100    0.0100    0.0100    0.0100    0.0100    0.0100    0.0100
    0.0100    0.0100    0.0100    0.0100    0.0100    0.0100    0.0100    0.0100
    0.0100    0.0100    0.0100    0.0100    0.0100    0.0100    0.0100    0.0100
    0.0100    0.0100    0.0100    0.0100    0.0100    0.0100    0.0100    0.0100
    0.0100    0.0100    0.0100    0.0100    0.0100    0.0100    0.0100    0.0100
    0.0100    0.0100    0.0100    0.0100    0.0100    0.0100    0.0100    0.0100
    0.0100    0.0100    0.0100    0.0100    0.0100    0.0100    0.0100    0.0100
    0.0100    0.0100    0.0100    0.0100    0.0100    0.0100    0.0100    0.0100
    0.0100    0.0100    0.0100    0.0100    0.0100    0.0100    0.0100    0.0100
    0.0100    0.0100    0.0100    0.0100    0.0100    0.0100    0.0100    0.0100
    0.0100    0.0100    0.0100    0.0100    0.0100    0.0100    0.0100    0.0100
    0.0100    0.0100    0.0100    0.0100    0.0100    0.0100    0.0100    0.0100
    0.0100    0.0100    0.0100    0.0100    0.0100    0.0100    0.0100    0.0100
    0.0100    0.0100    0.0100    0.0100    0.0100    0.0100    0.0100    0.0100
    0.0100    0.0100    0.0100    0.0100    0.0100    0.0100    0.0100    0.0100
    0.0100    0.0100    0.0100    0.0100    0.0100    0.0100    0.0100    0.0100
    0.0100    0.0100    0.0100    0.0100    0.0100    0.0100    0.0100    0.0100
    0.0100    0.0100    0.0100    0.0100    0.0100    0.0100    0.0100    0.0100
    0.0100    0.0100    0.0100    0.0100    0.0100    0.0100    0.0100    0.0100
    0.0100    0.0100    0.0100    0.0100    0.0100    0.0100    0.0100    0.0100
    0.0100    0.0100    0.0100    0.0100    0.0100    0.0100    0.0100    0.0100
    0.0100    0.0100    0.0100    0.0100    0.0100    0.0100    0.0100    0.0100
    0.0100    0.0100    0.0100    0.0100    0.0100    0.0100    0.0100    0.0100
    0.0100    0.0100    0.0100    0.0100    0.0100    0.0100    0.0100    0.0100
    0.0100    0.0100    0.0100    0.0100    0.0100    0.0100    0.0100    0.0100
    0.0100    0.0100    0.0100    0.0100    0.0100    0.0100    0.0100    0.0100
    0.0100    0.0100    0.0100    0.0100    0.0100    0.0100    0.0100    0.0100
    0.0100    0.0100    0.0100    0.0100    0.0100    0.0100    0.0100    0.0100
    0.0100    0.0100    0.0100    0.0100    0.0100    0.0100    0.0100    0.0100
    0.0100    0.0100    0.0100    0.0100    0.0100    0.0100    0.0100    0.0100
    0.0100    0.0100    0.0100    0.0100    0.0100    0.0100    0.0100    0.0100
    0.0100    0.0100    0.0100    0.0100    0.0100    0.0100    0.0100    0.0100
    0.0100    0.0100    0.0100    0.0100    0.0100    0.0100    0.0100    0.0100
    0.0100    0.0100    0.0100    0.0100    0.0100    0.0100    0.0100    0.0100
    0.0100    0.0100    0.0100    0.0100    0.0100    0.0100    0.0100    0.0100
    0.0100    0.0100    0.0100    0.0100    0.0100    0.0100    0.0100    0.0100
    0.0100    0.0100    0.0100    0.0100    0.0100    0.0100    0.0100    0.0100
    0.0100    0.0100    0.0100    0.0100    0.0100    0.0100    0.0100    0.0100
    0.0100    0.0100    0.0100    0.0100    0.0100    0.0100    0.0100    0.0100
    0.0100    0.0100    0.0100    0.0100    0.0100    0.0100    0.0100    0.0100
    0.0100    0.0100    0.0100    0.0100    0.0100    0.0100    0.0100    0.0100
    0.0100    0.0100    0.0100    0.0100    0.0100    0.0100    0.0100    0.0100
    0.0100    0.0100    0.0100    0.0100    0.0100    0.0100    0.0100    0.0100
    0.0100    0.0100    0.0100    0.0100    0.0100    0.0100    0.0100    0.0100
    0.0100    0.0100    0.0100    0.0100    0.0100    0.0100    0.0100    0.0100
    0.0100    0.0100    0.0100    0.0100    0.0100    0.0100    0.0100    0.0100
    0.0100    0.0100    0.0100    0.0100    0.0100    0.0100    0.0100    0.0100
    0.0100    0.0100    0.0100    0.0100    0.0100    0.0100    0.0100    0.0100
    0.0100    0.0100    0.0100    0.0100    0.0100    0.0100    0.0100    0.0100
    0.0100    0.0100    0.0100    0.0100    0.0100    0.0100    0.0100    0.0100
    0.0100    0.0100    0.0100    0.0100    0.0100    0.0100    0.0100    0.0100
    0.0100    0.0100    0.0100    0.0100    0.0100    0.0100    0.0100    0.0100
    0.0100    0.0100    0.0100    0.0100    0.0100    0.0100    0.0100    0.0100
    0.0100    0.0100    0.0100    0.0100    0.0100    0.0100    0.0100    0.0100
    0.0100    0.0100    0.0100    0.0100    0.0100    0.0100    0.0100    0.0100
    0.0100    0.0100    0.0100    0.0100    0.0100    0.0100    0.0100    0.0100
    0.0100    0.0100    0.0100    0.0100    0.0100    0.0100    0.0100    0.0100
    0.0100    0.0100    0.0100    0.0100    0.0100    0.0100    0.0100    0.0100
    0.0100    0.0100    0.0100    0.0100    0.0100    0.0100    0.0100    0.0100
    0.0100    0.0100    0.0100    0.0100    0.0100    0.0100    0.0100    0.0100
    0.0100    0.0100    0.0100    0.0100    0.0100    0.0100    0.0100    0.0100
    0.0100    0.0100    0.0100    0.0100    0.0100    0.0100    0.0100    0.0100
    0.0100    0.0100    0.0100    0.0100    0.0100    0.0100    0.0100    0.0100
    0.0100    0.0100    0.0100    0.0100    0.0100    0.0100    0.0100    0.0100
    0.0100    0.0100    0.0100    0.0100    0.0100    0.0100    0.0100    0.0100
    0.0100    0.0100    0.0100    0.0100    0.0100    0.0100    0.0100    0.0100
    0.0100    0.0100    0.0100    0.0100    0.0100    0.0100    0.0100    0.0100
    0.0100    0.0100    0.0100    0.0100    0.0100    0.0100    0.0100    0.0100
    0.0100    0.0100    0.0100    0.0100    0.0100    0.0100    0.0100    0.0100
    0.0100    0.0100    0.0100    0.0100    0.0100    0.0100    0.0100    0.0100
    0.0100    0.0100    0.0100    0.0100    0.0100    0.0100    0.0100    0.0100
    0.0100    0.0100    0.0100    0.0100    0.0100    0.0100    0.0100    0.0100
    0.0100    0.0100    0.0100    0.0100    0.0100    0.0100    0.0100    0.0100
    0.0100    0.0100    0.0100    0.0100    0.0100    0.0100    0.0100    0.0100
    0.0100    0.0100    0.0100    0.0100    0.0100    0.0100    0.0100    0.0100
    0.0100    0.0100    0.0100    0.0100    0.0100    0.0100    0.0100    0.0100
    0.0100    0.0100    0.0100    0.0100    0.0100    0.0100    0.0100    0.0100
    0.0100    0.0100    0.0100    0.0100    0.0100    0.0100
   </PP_RAB>
 </PP_MESH>
  <PP_LOCAL type="real"  size=" 926" columns="4">
   -2.9163285409E+01   -2.9158513590E+01   -2.9144170319E+01   -2.9120389406E+01
   -2.9087348700E+01   -2.9045280679E+01   -2.8994458950E+01   -2.8935184314E+01
   -2.8867794047E+01   -2.8792477109E+01   -2.8709645638E+01   -2.8619601766E+01
   -2.8522632216E+01   -2.8419006215E+01   -2.8308974846E+01   -2.8192771431E+01
   -2.8070612607E+01   -2.7942699804E+01   -2.7809220951E+01   -2.7670352230E+01
   -2.7526259813E+01   -2.7377101495E+01   -2.7223028209E+01   -2.7064185401E+01
   -2.6900714256E+01   -2.6732752782E+01   -2.6560436769E+01   -2.6383900614E+01
   -2.6203278044E+01   -2.6018702735E+01   -2.5830308833E+01   -2.5638231410E+01
   -2.5442606832E+01   -2.5243573072E+01   -2.5041269961E+01   -2.4835839387E+01
   -2.4627425445E+01   -2.4416174550E+01   -2.4202235504E+01   -2.3985759533E+01
   -2.3766900285E+01   -2.3545813800E+01   -2.3322658460E+01   -2.3097594895E+01
   -2.2870785883E+01   -2.2642396217E+01   -2.2412592553E+01   -2.2181543236E+01
   -2.1949418114E+01   -2.1716388326E+01   -2.1482626081E+01   -2.1248304416E+01
   -2.1013596942E+01   -2.0778677581E+01   -2.0543720281E+01   -2.0308898729E+01
   -2.0074386047E+01   -1.9840354480E+01   -1.9606975079E+01   -1.9374417366E+01
   -1.9142849005E+01   -1.8912435450E+01   -1.8683339601E+01   -1.8455721445E+01
   -1.8229737697E+01   -1.8005541433E+01   -1.7783281720E+01   -1.7563103247E+01
   -1.7345145940E+01   -1.7129544590E+01   -1.6916428468E+01   -1.6705920939E+01
   -1.6498139080E+01   -1.6293193286E+01   -1.6091186884E+01   -1.5892215743E+01
   -1.5696367877E+01   -1.5503723053E+01   -1.5314352398E+01   -1.5128317997E+01
   -1.4945672501E+01   -1.4766458721E+01   -1.4590709233E+01   -1.4418445968E+01
   -1.4249679813E+01   -1.4084410199E+01   -1.3922624692E+01   -1.3764298582E+01
   -1.3609394463E+01   -1.3457861816E+01   -1.3309636578E+01   -1.3164640837E+01
   -1.3022781944E+01   -1.2883958092E+01   -1.2748068125E+01   -1.2615015820E+01
   -1.2484709058E+01   -1.2357059778E+01   -1.2231983771E+01   -1.2109400502E+01
   -1.1989232938E+01   -1.1871407381E+01   -1.1755853317E+01   -1.1642503265E+01
   -1.1531292631E+01   -1.1422159580E+01   -1.1315044892E+01   -1.1209891844E+01
   -1.1106646081E+01   -1.1005255502E+01   -1.0905670138E+01   -1.0807842041E+01
   -1.0711725214E+01   -1.0617275479E+01   -1.0524449650E+01   -1.0433209659E+01
   -1.0343516124E+01   -1.0255324951E+01   -1.0168602477E+01   -1.0083315401E+01
   -9.9994287049E+00   -9.9169095509E+00   -9.8357260498E+00   -9.7558472826E+00
   -9.6772432841E+00   -9.5998849820E+00   -9.5237441483E+00   -9.4487933570E+00
   -9.3750059445E+00   -9.3023559758E+00   -9.2308182138E+00   -9.1603680932E+00
   -9.0909816957E+00   -9.0226357277E+00   -8.9553074993E+00   -8.8889749068E+00
   -8.8236164176E+00   -8.7592110541E+00   -8.6957383806E+00   -8.6331784906E+00
   -8.5715119954E+00   -8.5107200126E+00   -8.4507841560E+00   -8.3916865243E+00
   -8.3334096914E+00   -8.2759366957E+00   -8.2192510288E+00   -8.1633366254E+00
   -8.1081778512E+00   -8.0537594913E+00   -8.0000667371E+00   -7.9470851712E+00
   -7.8948007558E+00   -7.8431998202E+00   -7.7922690489E+00   -7.7419954702E+00
   -7.6923664448E+00   -7.6433696557E+00   -7.5949930977E+00   -7.5472250677E+00
   -7.5000541551E+00   -7.4534692331E+00   -7.4074594493E+00   -7.3620142179E+00
   -7.3171232113E+00   -7.2727763522E+00   -7.2289638061E+00   -7.1856759744E+00
   -7.1429034866E+00   -7.1006371943E+00   -7.0588681644E+00   -7.0175876726E+00
   -6.9767871976E+00   -6.9364584150E+00   -6.8965931921E+00   -6.8571835818E+00
   -6.8182218178E+00   -6.7797003091E+00   -6.7416116355E+00   -6.7039485427E+00
   -6.6667039372E+00   -6.6298708828E+00   -6.5934425954E+00   -6.5574124392E+00
   -6.5217739229E+00   -6.4865206953E+00   -6.4516465420E+00   -6.4171453813E+00
   -6.3830112611E+00   -6.3492383552E+00   -6.3158209600E+00   -6.2827534916E+00
   -6.2500304821E+00   -6.2176465772E+00   -6.1855965328E+00   -6.1538752124E+00
   -6.1224775845E+00   -6.0913987197E+00   -6.0606337879E+00   -6.0301780566E+00
   -6.0000268876E+00   -5.9701757350E+00   -5.9406201431E+00   -5.9113557439E+00
   -5.8823782550E+00   -5.8536834777E+00   -5.8252672947E+00   -5.7971256683E+00
   -5.7692546386E+00   -5.7416503211E+00   -5.7143089058E+00   -5.6872266545E+00
   -5.6603998998E+00   -5.6338250430E+00   -5.6074985529E+00   -5.5814169637E+00
   -5.5555768740E+00   -5.5299749450E+00   -5.5046078992E+00   -5.4794725189E+00
   -5.4545656451E+00   -5.4298841758E+00   -5.4054250649E+00   -5.3811853209E+00
   -5.3571620060E+00   -5.3333522342E+00   -5.3097531710E+00   -5.2863620315E+00
   -5.2631760799E+00   -5.2401926280E+00   -5.2174090346E+00   -5.1948227040E+00
   -5.1724310854E+00   -5.1502316716E+00   -5.1282219986E+00   -5.1063996440E+00
   -5.0847622265E+00   -5.0633074053E+00   -5.0420328787E+00   -5.0209363834E+00
   -5.0000156940E+00   -4.9792686222E+00   -4.9586930154E+00   -4.9382867570E+00
   -4.9180477646E+00   -4.8979739901E+00   -4.8780634186E+00   -4.8583140678E+00
   -4.8387239875E+00   -4.8192912588E+00   -4.8000139933E+00   -4.7808903329E+00
   -4.7619184490E+00   -4.7430965418E+00   -4.7244228400E+00   -4.7058955998E+00
   -4.6875131049E+00   -4.6692736658E+00   -4.6511756188E+00   -4.6332173262E+00
   -4.6153971755E+00   -4.5977135788E+00   -4.5801649725E+00   -4.5627498168E+00
   -4.5454665951E+00   -4.5283138138E+00   -4.5112900019E+00   -4.4943937101E+00
   -4.4776235109E+00   -4.4609779983E+00   -4.4444557866E+00   -4.4280555110E+00
   -4.4117758265E+00   -4.3956154080E+00   -4.3795729495E+00   -4.3636471644E+00
   -4.3478367842E+00   -4.3321405593E+00   -4.3165572575E+00   -4.3010856648E+00
   -4.2857245842E+00   -4.2704728359E+00   -4.2553292567E+00   -4.2402927000E+00
   -4.2253620352E+00   -4.2105361476E+00   -4.1958139383E+00   -4.1811943233E+00
   -4.1666762341E+00   -4.1522586167E+00   -4.1379404318E+00   -4.1237206542E+00
   -4.1095982729E+00   -4.0955722907E+00   -4.0816417239E+00   -4.0678056022E+00
   -4.0540629683E+00   -4.0404128779E+00   -4.0268543993E+00   -4.0133866134E+00
   -4.0000086133E+00   -3.9867195040E+00   -3.9735184025E+00   -3.9604044374E+00
   -3.9473767489E+00   -3.9344344883E+00   -3.9215768181E+00   -3.9088029116E+00
   -3.8961119529E+00   -3.8835031368E+00   -3.8709756683E+00   -3.8585287627E+00
   -3.8461616454E+00   -3.8338735515E+00   -3.8216637261E+00   -3.8095314238E+00
   -3.7974759086E+00   -3.7854964537E+00   -3.7735923417E+00   -3.7617628639E+00
   -3.7500073207E+00   -3.7383250211E+00   -3.7267152826E+00   -3.7151774314E+00
   -3.7037108018E+00   -3.6923147364E+00   -3.6809885858E+00   -3.6697317086E+00
   -3.6585434711E+00   -3.6474232476E+00   -3.6363704196E+00   -3.6253843763E+00
   -3.6144645143E+00   -3.6036102373E+00   -3.5928209562E+00   -3.5820960889E+00
   -3.5714350605E+00   -3.5608373024E+00   -3.5503022532E+00   -3.5398293580E+00
   -3.5294180682E+00   -3.5190678420E+00   -3.5087781436E+00   -3.4985484436E+00
   -3.4883782189E+00   -3.4782669522E+00   -3.4682141323E+00   -3.4582192540E+00
   -3.4482818177E+00   -3.4384013296E+00   -3.4285773017E+00   -3.4188092513E+00
   -3.4090967014E+00   -3.3994391803E+00   -3.3898362216E+00   -3.3802873643E+00
   -3.3707921524E+00   -3.3613501351E+00   -3.3519608668E+00   -3.3426239064E+00
   -3.3333388183E+00   -3.3241051712E+00   -3.3149225389E+00   -3.3057904998E+00
   -3.2967086369E+00   -3.2876765378E+00   -3.2786937945E+00   -3.2697600037E+00
   -3.2608747662E+00   -3.2520376873E+00   -3.2432483766E+00   -3.2345064477E+00
   -3.2258115185E+00   -3.2171632111E+00   -3.2085611515E+00   -3.2000049696E+00
   -3.1914942995E+00   -3.1830287789E+00   -3.1746080496E+00   -3.1662317570E+00
   -3.1578995502E+00   -3.1496110821E+00   -3.1413660093E+00   -3.1331639918E+00
   -3.1250046933E+00   -3.1168877808E+00   -3.1088129250E+00   -3.1007797998E+00
   -3.0927880826E+00   -3.0848374540E+00   -3.0769275980E+00   -3.0690582017E+00
   -3.0612289554E+00   -3.0534395527E+00   -3.0456896903E+00   -3.0379790678E+00
   -3.0303073878E+00   -3.0226743563E+00   -3.0150796817E+00   -3.0075230758E+00
   -3.0000042531E+00   -2.9925229307E+00   -2.9850788290E+00   -2.9776716707E+00
   -2.9703011817E+00   -2.9629670902E+00   -2.9556691273E+00   -2.9484070268E+00
   -2.9411805248E+00   -2.9339893603E+00   -2.9268332748E+00   -2.9197120121E+00
   -2.9126253187E+00   -2.9055729436E+00   -2.8985546379E+00   -2.8915701555E+00
   -2.8846192524E+00   -2.8777016871E+00   -2.8708172201E+00   -2.8639656147E+00
   -2.8571466361E+00   -2.8503600517E+00   -2.8436056312E+00   -2.8368831467E+00
   -2.8301923720E+00   -2.8235330834E+00   -2.8169050591E+00   -2.8103080795E+00
   -2.8037419269E+00   -2.7972063858E+00   -2.7907012427E+00   -2.7842262859E+00
   -2.7777813058E+00   -2.7713660947E+00   -2.7649804469E+00   -2.7586241584E+00