<UPF version="2.0.1">
  <PP_INFO>

 This pseudopotential file has been produced using the code
 ONCVPSP  (Optimized Norm-Conservinng Vanderbilt PSeudopotential)
 scalar-relativistic version 3.3.1 12/12/2017 by D. R. Hamann
 The code is available through a link at URL www.mat-simresearch.com.
 Documentation with the package provides a full discription of the
 input data below.


 While it is not required under the terms of the GNU GPL, it is
 suggested that you cite D. R. Hamann, Phys. Rev. B 88, 085117 (2013)
 in any publication using these pseudopotentials.

    <PP_INPUTFILE>
# ATOM AND REFERENCE CONFIGURATION
# atsym  z   nc   nv     iexc    psfile
  Ne 10.00    1    2       3      upf
#
#   n    l    f        energy (Ha)
    1    0    2.00
    2    0    2.00
    2    1    6.00
#
# PSEUDOPOTENTIAL AND OPTIMIZATION
# lmax
    1
#
#   l,   rc,      ep,       ncon, nbas, qcut
    0   1.30000  -1.32709    4    7   8.00000
    1   1.70000  -0.49729    4    7   8.00000
#
# LOCAL POTENTIAL
# lloc, lpopt,  rc(5),   dvloc0
    4    5   1.30000      0.00000
#
# VANDERBILT-KLEINMAN-BYLANDER PROJECTORs
# l, nproj, debl
    0    2   1.50000
    1    2   1.50000
#
# MODEL CORE CHARGE
# icmod, fcfact, rcfact
    0   0.00000   0.00000
#
# LOG DERIVATIVE ANALYSIS
# epsh1, epsh2, depsh
  -12.00   12.00    0.02
#
# OUTPUT GRID
# rlmax, drl
    4.00    0.01
#
# TEST CONFIGURATIONS
# ncnf
    0
# nvcnf
#   n    l    f
    </PP_INPUTFILE>
  </PP_INFO>
  <!--                               -->
  <!-- END OF HUMAN READABLE SECTION -->
  <!--                               -->
    <PP_HEADER
       generated="Generated using ONCVPSP code by D. R. Hamann"
       author="anonymous"
       date="200721"
       comment=""
       element="Ne"
       pseudo_type="NC"
       relativistic="scalar"
       is_ultrasoft="F"
       is_paw="F"
       is_coulomb="F"
       has_so="F"
       has_wfc="F"
       has_gipaw="F"
       core_correction="F"
       functional="PZ"
       z_valence="    8.00"
       total_psenergy="  -6.65482284337E+01"
       rho_cutoff="   7.49000000000E+00"
       l_max="1"
       l_local="-1"
       mesh_size="   750"
       number_of_wfc="2"
       number_of_proj="4"/>
 <PP_MESH>
   <PP_R type="real"  size=" 750" columns="8">
    0.0000    0.0100    0.0200    0.0300    0.0400    0.0500    0.0600    0.0700
    0.0800    0.0900    0.1000    0.1100    0.1200    0.1300    0.1400    0.1500
    0.1600    0.1700    0.1800    0.1900    0.2000    0.2100    0.2200    0.2300
    0.2400    0.2500    0.2600    0.2700    0.2800    0.2900    0.3000    0.3100
    0.3200    0.3300    0.3400    0.3500    0.3600    0.3700    0.3800    0.3900
    0.4000    0.4100    0.4200    0.4300    0.4400    0.4500    0.4600    0.4700
    0.4800    0.4900    0.5000    0.5100    0.5200    0.5300    0.5400    0.5500
    0.5600    0.5700    0.5800    0.5900    0.6000    0.6100    0.6200    0.6300
    0.6400    0.6500    0.6600    0.6700    0.6800    0.6900    0.7000    0.7100
    0.7200    0.7300    0.7400    0.7500    0.7600    0.7700    0.7800    0.7900
    0.8000    0.8100    0.8200    0.8300    0.8400    0.8500    0.8600    0.8700
    0.8800    0.8900    0.9000    0.9100    0.9200    0.9300    0.9400    0.9500
    0.9600    0.9700    0.9800    0.9900    1.0000    1.0100    1.0200    1.0300
    1.0400    1.0500    1.0600    1.0700    1.0800    1.0900    1.1000    1.1100
    1.1200    1.1300    1.1400    1.1500    1.1600    1.1700    1.1800    1.1900
    1.2000    1.2100    1.2200    1.2300    1.2400    1.2500    1.2600    1.2700
    1.2800    1.2900    1.3000    1.3100    1.3200    1.3300    1.3400    1.3500
    1.3600    1.3700    1.3800    1.3900    1.4000    1.4100    1.4200    1.4300
    1.4400    1.4500    1.4600    1.4700    1.4800    1.4900    1.5000    1.5100
    1.5200    1.5300    1.5400    1.5500    1.5600    1.5700    1.5800    1.5900
    1.6000    1.6100    1.6200    1.6300    1.6400    1.6500    1.6600    1.6700
    1.6800    1.6900    1.7000    1.7100    1.7200    1.7300    1.7400    1.7500
    1.7600    1.7700    1.7800    1.7900    1.8000    1.8100    1.8200    1.8300
    1.8400    1.8500    1.8600    1.8700    1.8800    1.8900    1.9000    1.9100
    1.9200    1.9300    1.9400    1.9500    1.9600    1.9700    1.9800    1.9900
    2.0000    2.0100    2.0200    2.0300    2.0400    2.0500    2.0600    2.0700
    2.0800    2.0900    2.1000    2.1100    2.1200    2.1300    2.1400    2.1500
    2.1600    2.1700    2.1800    2.1900    2.2000    2.2100    2.2200    2.2300
    2.2400    2.2500    2.2600    2.2700    2.2800    2.2900    2.3000    2.3100
    2.3200    2.3300    2.3400    2.3500    2.3600    2.3700    2.3800    2.3900
    2.4000    2.4100    2.4200    2.4300    2.4400    2.4500    2.4600    2.4700
    2.4800    2.4900    2.5000    2.5100    2.5200    2.5300    2.5400    2.5500
    2.5600    2.5700    2.5800    2.5900    2.6000    2.6100    2.6200    2.6300
    2.6400    2.6500    2.6600    2.6700    2.6800    2.6900    2.7000    2.7100
    2.7200    2.7300    2.7400    2.7500    2.7600    2.7700    2.7800    2.7900
    2.8000    2.8100    2.8200    2.8300    2.8400    2.8500    2.8600    2.8700
    2.8800    2.8900    2.9000    2.9100    2.9200    2.9300    2.9400    2.9500
    2.9600    2.9700    2.9800    2.9900    3.0000    3.0100    3.0200    3.0300
    3.0400    3.0500    3.0600    3.0700    3.0800    3.0900    3.1000    3.1100
    3.1200    3.1300    3.1400    3.1500    3.1600    3.1700    3.1800    3.1900
    3.2000    3.2100    3.2200    3.2300    3.2400    3.2500    3.2600    3.2700
    3.2800    3.2900    3.3000    3.3100    3.3200    3.3300    3.3400    3.3500
    3.3600    3.3700    3.3800    3.3900    3.4000    3.4100    3.4200    3.4300
    3.4400    3.4500    3.4600    3.4700    3.4800    3.4900    3.5000    3.5100
    3.5200    3.5300    3.5400    3.5500    3.5600    3.5700    3.5800    3.5900
    3.6000    3.6100    3.6200    3.6300    3.6400    3.6500    3.6600    3.6700
    3.6800    3.6900    3.7000    3.7100    3.7200    3.7300    3.7400    3.7500
    3.7600    3.7700    3.7800    3.7900    3.8000    3.8100    3.8200    3.8300
    3.8400    3.8500    3.8600    3.8700    3.8800    3.8900    3.9000    3.9100
    3.9200    3.9300    3.9400    3.9500    3.9600    3.9700    3.9800    3.9900
    4.0000    4.0100    4.0200    4.0300    4.0400    4.0500    4.0600    4.0700
    4.0800    4.0900    4.1000    4.1100    4.1200    4.1300    4.1400    4.1500
    4.1600    4.1700    4.1800    4.1900    4.2000    4.2100    4.2200    4.2300
    4.2400    4.2500    4.2600    4.2700    4.2800    4.2900    4.3000    4.3100
    4.3200    4.3300    4.3400    4.3500    4.3600    4.3700    4.3800    4.3900
    4.4000    4.4100    4.4200    4.4300    4.4400    4.4500    4.4600    4.4700
    4.4800    4.4900    4.5000    4.5100    4.5200    4.5300    4.5400    4.5500
    4.5600    4.5700    4.5800    4.5900    4.6000    4.6100    4.6200    4.6300
    4.6400    4.6500    4.6600    4.6700    4.6800    4.6900    4.7000    4.7100
    4.7200    4.7300    4.7400    4.7500    4.7600    4.7700    4.7800    4.7900
    4.8000    4.8100    4.8200    4.8300    4.8400    4.8500    4.8600    4.8700
    4.8800    4.8900    4.9000    4.9100    4.9200    4.9300    4.9400    4.9500
    4.9600    4.9700    4.9800    4.9900    5.0000    5.0100    5.0200    5.0300
    5.0400    5.0500    5.0600    5.0700    5.0800    5.0900    5.1000    5.1100
    5.1200    5.1300    5.1400    5.1500    5.1600    5.1700    5.1800    5.1900
    5.2000    5.2100    5.2200    5.2300    5.2400    5.2500    5.2600    5.2700
    5.2800    5.2900    5.3000    5.3100    5.3200    5.3300    5.3400    5.3500
    5.3600    5.3700    5.3800    5.3900    5.4000    5.4100    5.4200    5.4300
    5.4400    5.4500    5.4600    5.4700    5.4800    5.4900    5.5000    5.5100
    5.5200    5.5300    5.5400    5.5500    5.5600    5.5700    5.5800    5.5900
    5.6000    5.6100    5.6200    5.6300    5.6400    5.6500    5.6600    5.6700
    5.6800    5.6900    5.7000    5.7100    5.7200    5.7300    5.7400    5.7500
    5.7600    5.7700    5.7800    5.7900    5.8000    5.8100    5.8200    5.8300
    5.8400    5.8500    5.8600    5.8700    5.8800    5.8900    5.9000    5.9100
    5.9200    5.9300    5.9400    5.9500    5.9600    5.9700    5.9800    5.9900
    6.0000    6.0100    6.0200    6.0300    6.0400    6.0500    6.0600    6.0700
    6.0800    6.0900    6.1000    6.1100    6.1200    6.1300    6.1400    6.1500
    6.1600    6.1700    6.1800    6.1900    6.2000    6.2100    6.2200    6.2300
    6.2400    6.2500    6.2600    6.2700    6.2800    6.2900    6.3000    6.3100
    6.3200    6.3300    6.3400    6.3500    6.3600    6.3700    6.3800    6.3900
    6.4000    6.4100    6.4200    6.4300    6.4400    6.4500    6.4600    6.4700
    6.4800    6.4900    6.5000    6.5100    6.5200    6.5300    6.5400    6.5500
    6.5600    6.5700    6.5800    6.5900    6.6000    6.6100    6.6200    6.6300
    6.6400    6.6500    6.6600    6.6700    6.6800    6.6900    6.7000    6.7100
    6.7200    6.7300    6.7400    6.7500    6.7600    6.7700    6.7800    6.7900
    6.8000    6.8100    6.8200    6.8300    6.8400    6.8500    6.8600    6.8700
    6.8800    6.8900    6.9000    6.9100    6.9200    6.9300    6.9400    6.9500
    6.9600    6.9700    6.9800    6.9900    7.0000    7.0100    7.0200    7.0300
    7.0400    7.0500    7.0600    7.0700    7.0800    7.0900    7.1000    7.1100
    7.1200    7.1300    7.1400    7.1500    7.1600    7.1700    7.1800    7.1900
    7.2000    7.2100    7.2200    7.2300    7.2400    7.2500    7.2600    7.2700
    7.2800    7.2900    7.3000    7.3100    7.3200    7.3300    7.3400    7.3500
    7.3600    7.3700    7.3800    7.3900    7.4000    7.4100    7.4200    7.4300
    7.4400    7.4500    7.4600    7.4700    7.4800    7.4900
   </PP_R>
   <PP_RAB type="real"  size=" 750" columns="8">
    0.0100    0.0100    0.0100    0.0100    0.0100    0.0100    0.0100    0.0100
    0.0100    0.0100    0.0100    0.0100    0.0100    0.0100    0.0100    0.0100
    0.0100    0.0100    0.0100    0.0100    0.0100    0.0100    0.0100    0.0100
    0.0100    0.0100    0.0100    0.0100    0.0100    0.0100    0.0100    0.0100
    0.0100    0.0100    0.0100    0.0100    0.0100    0.0100    0.0100    0.0100
    0.0100    0.0100    0.0100    0.0100    0.0100    0.0100    0.0100    0.0100
    0.0100    0.0100    0.0100    0.0100    0.0100    0.0100    0.0100    0.0100
    0.0100    0.0100    0.0100    0.0100    0.0100    0.0100    0.0100    0.0100
    0.0100    0.0100    0.0100    0.0100    0.0100    0.0100    0.0100    0.0100
    0.0100    0.0100    0.0100    0.0100    0.0100    0.0100    0.0100    0.0100
    0.0100    0.0100    0.0100    0.0100    0.0100    0.0100    0.0100    0.0100
    0.0100    0.0100    0.0100    0.0100    0.0100    0.0100    0.0100    0.0100
    0.0100    0.0100    0.0100    0.0100    0.0100    0.0100    0.0100    0.0100
    0.0100    0.0100    0.0100    0.0100    0.0100    0.0100    0.0100    0.0100
    0.0100    0.0100    0.0100    0.0100    0.0100    0.0100    0.0100    0.0100
    0.0100    0.0100    0.0100    0.0100    0.0100    0.0100    0.0100    0.0100
    0.0100    0.0100    0.0100    0.0100    0.0100    0.0100    0.0100    0.0100
    0.0100    0.0100    0.0100    0.0100    0.0100    0.0100    0.0100    0.0100
    0.0100    0.0100    0.0100    0.0100    0.0100    0.0100    0.0100    0.0100
    0.0100    0.0100    0.0100    0.0100    0.0100    0.0100    0.0100    0.0100
    0.0100    0.0100    0.0100    0.0100    0.0100    0.0100    0.0100    0.0100
    0.0100    0.0100    0.0100    0.0100    0.0100    0.0100    0.0100    0.0100
    0.0100    0.0100    0.0100    0.0100    0.0100    0.0100    0.0100    0.0100
    0.0100    0.0100    0.0100    0.0100    0.0100    0.0100    0.0100    0.0100
    0.0100    0.0100    0.0100    0.0100    0.0100    0.0100    0.0100    0.0100
    0.0100    0.0100    0.0100    0.0100    0.0100    0.0100    0.0100    0.0100
    0.0100    0.0100    0.0100    0.0100    0.0100    0.0100    0.0100    0.0100
    0.0100    0.0100    0.0100    0.0100    0.0100    0.0100    0.0100    0.0100
    0.0100    0.0100    0.0100    0.0100    0.0100    0.0100    0.0100    0.0100
    0.0100    0.0100    0.0100    0.0100    0.0100    0.0100    0.0100    0.0100
    0.0100    0.0100    0.0100    0.0100    0.0100    0.0100    0.0100    0.0100
    0.0100    0.0100    0.0100    0.0100    0.0100    0.0100    0.0100    0.0100
    0.0100    0.0100    0.0100    0.0100    0.0100    0.0100    0.0100    0.0100
    0.0100    0.0100    0.0100    0.0100    0.0100    0.0100    0.0100    0.0100
    0.0100    0.0100    0.0100    0.0100    0.0100    0.0100    0.0100    0.0100
    0.0100    0.0100    0.0100    0.0100    0.0100    0.0100    0.0100    0.0100
    0.0100    0.0100    0.0100    0.0100    0.0100    0.0100    0.0100    0.0100
    0.0100    0.0100    0.0100    0.0100    0.0100    0.0100    0.0100    0.0100
    0.0100    0.0100    0.0100    0.0100    0.0100    0.0100    0.0100    0.0100
    0.0100    0.0100    0.0100    0.0100    0.0100    0.0100    0.0100    0.0100
    0.0100    0.0100    0.0100    0.0100    0.0100    0.0100    0.0100    0.0100
    0.0100    0.0100    0.0100    0.0100    0.0100    0.0100    0.0100    0.0100
    0.0100    0.0100    0.0100    0.0100    0.0100    0.0100    0.0100    0.0100
    0.0100    0.0100    0.0100    0.0100    0.0100    0.0100    0.0100    0.0100
    0.0100    0.0100    0.0100    0.0100    0.0100    0.0100    0.0100    0.0100
    0.0100    0.0100    0.0100    0.0100    0.0100    0.0100    0.0100    0.0100
    0.0100    0.0100    0.0100    0.0100    0.0100    0.0100    0.0100    0.0100
    0.0100    0.0100    0.0100    0.0100    0.0100    0.0100    0.0100    0.0100
    0.0100    0.0100    0.0100    0.0100    0.0100    0.0100    0.0100    0.0100
    0.0100    0.0100    0.0100    0.0100    0.0100    0.0100    0.0100    0.0100
    0.0100    0.0100    0.0100    0.0100    0.0100    0.0100    0.0100    0.0100
    0.0100    0.0100    0.0100    0.0100    0.0100    0.0100    0.0100    0.0100
    0.0100    0.0100    0.0100    0.0100    0.0100    0.0100    0.0100    0.0100
    0.0100    0.0100    0.0100    0.0100    0.0100    0.0100    0.0100    0.0100
    0.0100    0.0100    0.0100    0.0100    0.0100    0.0100    0.0100    0.0100
    0.0100    0.0100    0.0100    0.0100    0.0100    0.0100    0.0100    0.0100
    0.0100    0.0100    0.0100    0.0100    0.0100    0.0100    0.0100    0.0100
    0.0100    0.0100    0.0100    0.0100    0.0100    0.0100    0.0100    0.0100
    0.0100    0.0100    0.0100    0.0100    0.0100    0.0100    0.0100    0.0100
    0.0100    0.0100    0.0100    0.0100    0.0100    0.0100    0.0100    0.0100
    0.0100    0.0100    0.0100    0.0100    0.0100    0.0100    0.0100    0.0100
    0.0100    0.0100    0.0100    0.0100    0.0100    0.0100    0.0100    0.0100
    0.0100    0.0100    0.0100    0.0100    0.0100    0.0100    0.0100    0.0100
    0.0100    0.0100    0.0100    0.0100    0.0100    0.0100    0.0100    0.0100
    0.0100    0.0100    0.0100    0.0100    0.0100    0.0100    0.0100    0.0100
    0.0100    0.0100    0.0100    0.0100    0.0100    0.0100    0.0100    0.0100
    0.0100    0.0100    0.0100    0.0100    0.0100    0.0100    0.0100    0.0100
    0.0100    0.0100    0.0100    0.0100    0.0100    0.0100    0.0100    0.0100
    0.0100    0.0100    0.0100    0.0100    0.0100    0.0100    0.0100    0.0100
    0.0100    0.0100    0.0100    0.0100    0.0100    0.0100    0.0100    0.0100
    0.0100    0.0100    0.0100    0.0100    0.0100    0.0100    0.0100    0.0100
    0.0100    0.0100    0.0100    0.0100    0.0100    0.0100    0.0100    0.0100
    0.0100    0.0100    0.0100    0.0100    0.0100    0.0100    0.0100    0.0100
    0.0100    0.0100    0.0100    0.0100    0.0100    0.0100    0.0100    0.0100
    0.0100    0.0100    0.0100    0.0100    0.0100    0.0100    0.0100    0.0100
    0.0100    0.0100    0.0100    0.0100    0.0100    0.0100    0.0100    0.0100
    0.0100    0.0100    0.0100    0.0100    0.0100    0.0100    0.0100    0.0100
    0.0100    0.0100    0.0100    0.0100    0.0100    0.0100    0.0100    0.0100
    0.0100    0.0100    0.0100    0.0100    0.0100    0.0100    0.0100    0.0100
    0.0100    0.0100    0.0100    0.0100    0.0100    0.0100    0.0100    0.0100
    0.0100    0.0100    0.0100    0.0100    0.0100    0.0100    0.0100    0.0100
    0.0100    0.0100    0.0100    0.0100    0.0100    0.0100    0.0100    0.0100
    0.0100    0.0100    0.0100    0.0100    0.0100    0.0100    0.0100    0.0100
    0.0100    0.0100    0.0100    0.0100    0.0100    0.0100    0.0100    0.0100
    0.0100    0.0100    0.0100    0.0100    0.0100    0.0100    0.0100    0.0100
    0.0100    0.0100    0.0100    0.0100    0.0100    0.0100    0.0100    0.0100
    0.0100    0.0100    0.0100    0.0100    0.0100    0.0100    0.0100    0.0100
    0.0100    0.0100    0.0100    0.0100    0.0100    0.0100    0.0100    0.0100
    0.0100    0.0100    0.0100    0.0100    0.0100    0.0100    0.0100    0.0100
    0.0100    0.0100    0.0100    0.0100    0.0100    0.0100    0.0100    0.0100
    0.0100    0.0100    0.0100    0.0100    0.0100    0.0100    0.0100    0.0100
    0.0100    0.0100    0.0100    0.0100    0.0100    0.0100    0.0100    0.0100
    0.0100    0.0100    0.0100    0.0100    0.0100    0.0100    0.0100    0.0100
    0.0100    0.0100    0.0100    0.0100    0.0100    0.0100
   </PP_RAB>
 </PP_MESH>
  <PP_LOCAL type="real"  size=" 750" columns="4">
   -2.6848831396E+01   -2.6846893532E+01   -2.6841085895E+01   -2.6831426261E+01
   -2.6817943711E+01   -2.6800677870E+01   -2.6779677887E+01   -2.6755001229E+01
   -2.6726712326E+01   -2.6694881156E+01   -2.6659581811E+01   -2.6620891096E+01
   -2.6578887219E+01   -2.6533648597E+01   -2.6485252802E+01   -2.6433775667E+01
   -2.6379290553E+01   -2.6321867774E+01   -2.6261574181E+01   -2.6198472884E+01
   -2.6132623099E+01   -2.6064080112E+01   -2.5992895334E+01   -2.5919116440E+01
   -2.5842787564E+01   -2.5763949557E+01   -2.5682640272E+01   -2.5598894885E+01
   -2.5512746229E+01   -2.5424225138E+01   -2.5333360799E+01   -2.5240181094E+01
   -2.5144712940E+01   -2.5046982621E+01   -2.4947016093E+01   -2.4844839289E+01
   -2.4740478397E+01   -2.4633960115E+01   -2.4525311895E+01   -2.4414562160E+01
   -2.4301740500E+01   -2.4186877849E+01   -2.4070006636E+01   -2.3951160922E+01
   -2.3830376508E+01   -2.3707691030E+01   -2.3583144028E+01   -2.3456777003E+01
   -2.3328633445E+01   -2.3198758859E+01   -2.3067200760E+01   -2.2934008659E+01
   -2.2799234033E+01   -2.2662930283E+01   -2.2525152678E+01   -2.2385958284E+01
   -2.2245405887E+01   -2.2103555904E+01   -2.1960470286E+01   -2.1816212409E+01
   -2.1670846969E+01   -2.1524439856E+01   -2.1377058037E+01   -2.1228769426E+01
   -2.1079642755E+01   -2.0929747443E+01   -2.0779153460E+01   -2.0627931196E+01
   -2.0476151324E+01   -2.0323884671E+01   -2.0171202083E+01   -2.0018174298E+01
   -1.9864871819E+01   -1.9711364790E+01   -1.9557722879E+01   -1.9404015160E+01
   -1.9250310004E+01   -1.9096674970E+01   -1.8943176711E+01   -1.8789880869E+01
   -1.8636851993E+01   -1.8484153449E+01   -1.8331847346E+01   -1.8179994456E+01
   -1.8028654154E+01   -1.7877884351E+01   -1.7727741438E+01   -1.7578280239E+01
   -1.7429553960E+01   -1.7281614153E+01   -1.7134510678E+01   -1.6988291673E+01
   -1.6843003528E+01   -1.6698690861E+01   -1.6555396504E+01   -1.6413161483E+01
   -1.6272025011E+01   -1.6132024480E+01   -1.5993195452E+01   -1.5855571662E+01
   -1.5719185011E+01   -1.5584065572E+01   -1.5450241593E+01   -1.5317739497E+01
   -1.5186583892E+01   -1.5056797572E+01   -1.4928401528E+01   -1.4801414952E+01
   -1.4675855242E+01   -1.4551738011E+01   -1.4429077092E+01   -1.4307884540E+01
   -1.4188170638E+01   -1.4069943900E+01   -1.3953211070E+01   -1.3837977126E+01
   -1.3724245273E+01   -1.3612017194E+01   -1.3501291100E+01   -1.3392066126E+01
   -1.3284351436E+01   -1.3178084274E+01   -1.3073236577E+01   -1.2969889729E+01
   -1.2868026248E+01   -1.2767607637E+01   -1.2668626919E+01   -1.2571067077E+01
   -1.2474908644E+01   -1.2380130805E+01   -1.2286710693E+01   -1.2194623224E+01
   -1.2103841358E+01   -1.2014337320E+01   -1.1926083675E+01   -1.1839054194E+01
   -1.1753223546E+01   -1.1668567284E+01   -1.1585061814E+01   -1.1502684372E+01
   -1.1421412976E+01   -1.1341226396E+01   -1.1262104119E+01   -1.1184026313E+01
   -1.1106973796E+01   -1.1030928000E+01   -1.0955870942E+01   -1.0881785191E+01
   -1.0808653838E+01   -1.0736460464E+01   -1.0665189114E+01   -1.0594824265E+01
   -1.0525350802E+01   -1.0456753988E+01   -1.0389019441E+01   -1.0322133106E+01
   -1.0256081232E+01   -1.0190850349E+01   -1.0126427249E+01   -1.0062798956E+01
   -9.9999527164E+00   -9.9378759714E+00   -9.8765563432E+00   -9.8159816163E+00
   -9.7561397218E+00   -9.6970187219E+00   -9.6386067972E+00   -9.5808922328E+00
   -9.5238634058E+00   -9.4675087772E+00   -9.4118168767E+00   -9.3567763156E+00
   -9.3023758170E+00   -9.2486042531E+00   -9.1954507451E+00   -9.1429047117E+00
   -9.0909558098E+00   -9.0395939132E+00   -8.9888091280E+00   -8.9385917815E+00
   -8.8889324164E+00   -8.8398217840E+00   -8.7912508390E+00   -8.7432107339E+00
   -8.6956928133E+00   -8.6486886093E+00   -8.6021898358E+00   -8.5561883841E+00
   -8.5106763181E+00   -8.4656458694E+00   -8.4210894334E+00   -8.3769995646E+00
   -8.3333689729E+00   -8.2901905189E+00   -8.2474572107E+00   -8.2051621997E+00
   -8.1632987771E+00   -8.1218603704E+00   -8.0808405397E+00   -8.0402329748E+00
   -8.0000314914E+00   -7.9602300286E+00   -7.9208226453E+00   -7.8818035175E+00
   -7.8431669355E+00   -7.8049073008E+00   -7.7670191240E+00   -7.7294970214E+00
   -7.6923357129E+00   -7.6555300196E+00   -7.6190748612E+00   -7.5829652537E+00
   -7.5471963071E+00   -7.5117632232E+00   -7.4766612937E+00   -7.4418858976E+00
   -7.4074324998E+00   -7.3732966484E+00   -7.3394739736E+00   -7.3059601851E+00
   -7.2727510708E+00   -7.2398424948E+00   -7.2072303957E+00   -7.1749107849E+00
   -7.1428797451E+00   -7.1111334286E+00   -7.0796680559E+00   -7.0484799139E+00
   -7.0175653548E+00   -6.9869207946E+00   -6.9565427114E+00   -6.9264276444E+00
   -6.8965721926E+00   -6.8669730131E+00   -6.8376268204E+00   -6.8085303848E+00
   -6.7796805314E+00   -6.7510741389E+00   -6.7227081383E+00   -6.6945795122E+00
   -6.6666852932E+00   -6.6390225636E+00   -6.6115884534E+00   -6.5843801403E+00
   -6.5573948479E+00   -6.5306298454E+00   -6.5040824463E+00   -6.4777500075E+00
   -6.4516299288E+00   -6.4257196515E+00   -6.4000166579E+00   -6.3745184707E+00
   -6.3492226515E+00   -6.3241268007E+00   -6.2992285564E+00   -6.2745255939E+00
   -6.2500156246E+00   -6.2256963957E+00   -6.2015656892E+00   -6.1776213215E+00
   -6.1538611425E+00   -6.1302830350E+00   -6.1068849143E+00   -6.0836647271E+00
   -6.0606204516E+00   -6.0377500963E+00   -6.0150516995E+00   -5.9925233293E+00
   -5.9701630823E+00   -5.9479690834E+00   -5.9259394855E+00   -5.9040724686E+00
   -5.8823662395E+00   -5.8608190314E+00   -5.8394291030E+00   -5.8181947386E+00
   -5.7971142473E+00   -5.7761859625E+00   -5.7554082417E+00   -5.7347794660E+00
   -5.7142980394E+00   -5.6939623889E+00   -5.6737709636E+00   -5.6537222346E+00
   -5.6338146946E+00   -5.6140468573E+00   -5.5944172573E+00   -5.5749244496E+00
   -5.5555670093E+00   -5.5363435311E+00   -5.5172526293E+00   -5.4982929371E+00
   -5.4794631064E+00   -5.4607618075E+00   -5.4421877289E+00   -5.4237395769E+00
   -5.4054160751E+00   -5.3872159644E+00   -5.3691380026E+00   -5.3511809642E+00
   -5.3333436399E+00   -5.3156248365E+00   -5.2980233767E+00   -5.2805380986E+00
   -5.2631678557E+00   -5.2459115166E+00   -5.2287679643E+00   -5.2117360970E+00
   -5.1948148266E+00   -5.1780030794E+00   -5.1612997955E+00   -5.1447039286E+00
   -5.1282144460E+00   -5.1118303278E+00   -5.0955505674E+00   -5.0793741710E+00
   -5.0633001572E+00   -5.0473275571E+00   -5.0314554140E+00   -5.0156827832E+00
   -5.0000087316E+00   -4.9844323379E+00   -4.9689526925E+00   -4.9535688965E+00
   -4.9382800626E+00   -4.9230853141E+00   -4.9079837852E+00   -4.8929746208E+00
   -4.8780569759E+00   -4.8632300161E+00   -4.8484929170E+00   -4.8338448640E+00
   -4.8192850526E+00   -4.8048126879E+00   -4.7904269842E+00   -4.7761271656E+00
   -4.7619124653E+00   -4.7477821254E+00   -4.7337353973E+00   -4.7197715410E+00
   -4.7058898252E+00   -4.6920895274E+00   -4.6783699333E+00   -4.6647303371E+00
   -4.6511700411E+00   -4.6376883557E+00   -4.6242845994E+00   -4.6109580984E+00
   -4.5977081866E+00   -4.5845342058E+00   -4.5714355051E+00   -4.5584114411E+00
   -4.5454613776E+00   -4.5325846859E+00   -4.5197807439E+00   -4.5070489371E+00
   -4.4943886574E+00   -4.4817993039E+00   -4.4692802821E+00   -4.4568310044E+00
   -4.4444508895E+00   -4.4321393626E+00   -4.4198958555E+00   -4.4077198058E+00
   -4.3956106577E+00   -4.3835678612E+00   -4.3715908725E+00   -4.3596791537E+00
   -4.3478321727E+00   -4.3360494031E+00   -4.3243303242E+00   -4.3126744212E+00
   -4.3010811845E+00   -4.2895501100E+00   -4.2780806992E+00   -4.2666724587E+00
   -4.2553249004E+00   -4.2440375416E+00   -4.2328099044E+00   -4.2216415160E+00
   -4.2105319088E+00   -4.1994806199E+00   -4.1884871912E+00   -4.1775511697E+00
   -4.1666721066E+00   -4.1558495584E+00   -4.1450830856E+00   -4.1343722536E+00
   -4.1237166323E+00   -4.1131157957E+00   -4.1025693225E+00   -4.0920767956E+00
   -4.0816378021E+00   -4.0712519333E+00   -4.0609187849E+00   -4.0506379562E+00
   -4.0404090511E+00   -4.0302316771E+00   -4.0201054457E+00   -4.0100299725E+00
   -4.0000048768E+00   -3.9900297817E+00   -3.9801043140E+00   -3.9702281043E+00
   -3.9604007868E+00   -3.9506219994E+00   -3.9408913835E+00   -3.9312085839E+00
   -3.9215732492E+00   -3.9119850311E+00   -3.9024435848E+00   -3.8929485691E+00
   -3.8834996458E+00   -3.8740964800E+00   -3.8647387403E+00   -3.8554260982E+00
   -3.8461582284E+00   -3.8369348090E+00   -3.8277555209E+00   -3.8186200481E+00
   -3.8095280776E+00   -3.8004792994E+00   -3.7914734065E+00   -3.7825100948E+00
   -3.7735890629E+00   -3.7647100124E+00   -3.7558726477E+00   -3.7470766759E+00
   -3.7383218068E+00   -3.7296077530E+00   -3.7209342298E+00   -3.7123009550E+00
   -3.7037076492E+00   -3.6951540354E+00   -3.6866398392E+00   -3.6781647888E+00
   -3.6697286149E+00   -3.6613310505E+00   -3.6529718313E+00   -3.6446506951E+00
   -3.6363673823E+00   -3.6281216357E+00   -3.6199132001E+00   -3.6117418231E+00
   -3.6036072541E+00   -3.5955092450E+00   -3.5874475500E+00   -3.5794219252E+00
   -3.5714321292E+00   -3.5634779225E+00   -3.5555590680E+00   -3.5476753303E+00
   -3.5398264765E+00   -3.5320122756E+00   -3.5242324985E+00   -3.5164869182E+00
   -3.5087753099E+00   -3.5010974505E+00   -3.4934531189E+00   -3.4858420960E+00
   -3.4782641645E+00   -3.4707191092E+00   -3.4632067165E+00   -3.4557267748E+00
   -3.4482790743E+00   -3.4408634069E+00   -3.4334795665E+00   -3.4261273486E+00
   -3.4188065505E+00   -3.4115169712E+00   -3.4042584114E+00   -3.3970306736E+00
   -3.3898335619E+00   -3.3826668819E+00   -3.3755304412E+00   -3.3684240487E+00
   -3.3613475150E+00   -3.3543006524E+00   -3.3472832746E+00   -3.3402951970E+00
   -3.3333362364E+00   -3.3264062113E+00   -3.3195049415E+00   -3.3126322484E+00
   -3.3057879549E+00   -3.2989718854E+00   -3.2921838656E+00   -3.2854237227E+00
   -3.2786912853E+00   -3.2719863836E+00   -3.2653088488E+00   -3.2586585138E+00
   -3.2520352127E+00   -3.2454387810E+00   -3.2388690556E+00   -3.2323258746E+00
   -3.2258090774E+00   -3.2193185048E+00   -3.2128539988E+00   -3.2064154027E+00
   -3.2000025610E+00   -3.1936153195E+00   -3.1872535252E+00   -3.1809170264E+00
   -3.1746056725E+00   -3.1683193140E+00   -3.1620578029E+00   -3.1558209920E+00
   -3.1496087356E+00   -3.1434208888E+00   -3.1372573082E+00   -3.1311178512E+00
   -3.1250023765E+00   -3.1189107438E+00   -3.1128428140E+00   -3.1067984491E+00
   -3.1007775119E+00   -3.0947798666E+00   -3.0888053783E+00   -3.0828539131E+00
   -3.0769253382E+00   -3.0710195217E+00   -3.0651363330E+00   -3.0592756421E+00
   -3.0534373203E+00   -3.0476212398E+00   -3.0418272737E+00   -3.0360552961E+00
   -3.0303051821E+00   -3.0245768077E+00   -3.0188700498E+00   -3.0131847864E+00
   -3.0075208962E+00   -3.0018782588E+00   -2.9962567550E+00   -2.9906562662E+00
   -2.9850766747E+00   -2.9795178639E+00   -2.9739797178E+00   -2.9684621215E+00
   -2.9629649608E+00   -2.9574881223E+00   -2.9520314936E+00   -2.9465949630E+00
   -2.9411784196E+00   -2.9357817535E+00   -2.9304048555E+00   -2.9250476171E+00
   -2.9197099307E+00   -2.9143916894E+00   -2.9090927872E+00   -2.9038131189E+00
   -2.8985525797E+00   -2.8933110661E+00   -2.8880884750E+00   -2.8828847040E+00
   -2.8776996516E+00   -2.8725332171E+00   -2.8673853002E+00   -2.8622558018E+00
   -2.8571446229E+00   -2.8520516658E+00   -2.8469768331E+00   -2.8419200283E+00
   -2.8368811554E+00   -2.8318601193E+00   -2.8268568253E+00   -2.8218711797E+00
   -2.8169030893E+00   -2.8119524614E+00   -2.8070192041E+00   -2.8021032262E+00
   -2.7972044371E+00   -2.7923227468E+00   -2.7874580658E+00   -2.7826103055E+00
   -2.7777793778E+00   -2.7729651950E+00   -2.7681676704E+00   -2.7633867175E+00
   -2.7586222507E+00   -2.7538741849E+00   -2.7491424354E+00   -2.7444269184E+00
   -2.7397275505E+00   -2.7350442488E+00   -2.7303769310E+00   -2.7257255156E+00
   -2.7210899214E+00   -2.7164700677E+00   -2.7118658746E+00   -2.7072772625E+00
   -2.7027041526E+00   -2.6981464663E+00   -2.6936041257E+00   -2.6890770536E+00
   -2.6845651730E+00   -2.6800684076E+00   -2.6755866816E+00   -2.6711199196E+00
   -2.6666680468E+00   -2.6622309890E+00   -2.6578086722E+00   -2.6534010232E+00
   -2.6490079691E+00   -2.6446294375E+00   -2.6402653565E+00   -2.6359156547E+00
   -2.6315802612E+00   -2.6272591054E+00   -2.6229521174E+00   -2.6186592276E+00