<UPF version="2.0.1">
  <PP_INFO>

 This pseudopotential file has been produced using the code
 ONCVPSP  (Optimized Norm-Conservinng Vanderbilt PSeudopotential)
 fully-relativistic version 3.3.1 12/12/2017 by D. R. Hamann
 The code is available through a link at URL www.mat-simresearch.com.
 Documentation with the package provides a full discription of the
 input data below.


 While it is not required under the terms of the GNU GPL, it is
 suggested that you cite D. R. Hamann, Phys. Rev. B 88, 085117 (2013)
 in any publication using these pseudopotentials.

    <PP_INPUTFILE>
# ATOM AND REFERENCE CONFIGURATION
# atsym  z   nc   nv     iexc    psfile
  Ne 10.00    1    2       3      upf
#
#   n    l    f        energy (Ha)
    1    0    2.00
    2    0    2.00
    2    1    6.00
#
# PSEUDOPOTENTIAL AND OPTIMIZATION
# lmax
    1
#
#   l,   rc,     ep,   ncon, nbas, qcut
    0   1.30000  -1.32703    4    7   8.00000
    1   1.70000  -0.49597    4    7   8.00000
#
# LOCAL POTENTIAL
# lloc, lpopt,  rc(5),   dvloc0
    4    5   1.30000      0.00000
#
# VANDERBILT-KLEINMAN-BYLANDER PROJECTORs
# l, nproj, debl
    0    2   1.50000
    1    2   1.49873
#
# MODEL CORE CHARGE
# icmod, fcfact, rcfact
    0   0.00000   0.00000
#
# LOG DERIVATIVE ANALYSIS
# epsh1, epsh2, depsh
  -12.00   12.00    0.02
#
# OUTPUT GRID
# rlmax, drl
    4.00    0.01
#
# TEST CONFIGURATIONS
# ncnf
    0
# nvcnf
#   n    l    f
    </PP_INPUTFILE>
  </PP_INFO>
  <!--                               -->
  <!-- END OF HUMAN READABLE SECTION -->
  <!--                               -->
    <PP_HEADER
       generated="Generated using ONCVPSP code by D. R. Hamann"
       author="anonymous"
       date="200721"
       comment=""
       element="Ne"
       pseudo_type="NC"
       relativistic="full"
       is_ultrasoft="F"
       is_paw="F"
       is_coulomb="F"
       has_so="T"
       has_wfc="F"
       has_gipaw="F"
       core_correction="F"
       functional="PZ"
       z_valence="    8.00"
       total_psenergy="  -6.65452849172E+01"
       rho_cutoff="   7.49000000000E+00"
       l_max="1"
       l_local="-1"
       mesh_size="   750"
       number_of_wfc="3"
       number_of_proj="6"/>
 <PP_MESH>
   <PP_R type="real"  size=" 750" columns="8">
    0.0000    0.0100    0.0200    0.0300    0.0400    0.0500    0.0600    0.0700
    0.0800    0.0900    0.1000    0.1100    0.1200    0.1300    0.1400    0.1500
    0.1600    0.1700    0.1800    0.1900    0.2000    0.2100    0.2200    0.2300
    0.2400    0.2500    0.2600    0.2700    0.2800    0.2900    0.3000    0.3100
    0.3200    0.3300    0.3400    0.3500    0.3600    0.3700    0.3800    0.3900
    0.4000    0.4100    0.4200    0.4300    0.4400    0.4500    0.4600    0.4700
    0.4800    0.4900    0.5000    0.5100    0.5200    0.5300    0.5400    0.5500
    0.5600    0.5700    0.5800    0.5900    0.6000    0.6100    0.6200    0.6300
    0.6400    0.6500    0.6600    0.6700    0.6800    0.6900    0.7000    0.7100
    0.7200    0.7300    0.7400    0.7500    0.7600    0.7700    0.7800    0.7900
    0.8000    0.8100    0.8200    0.8300    0.8400    0.8500    0.8600    0.8700
    0.8800    0.8900    0.9000    0.9100    0.9200    0.9300    0.9400    0.9500
    0.9600    0.9700    0.9800    0.9900    1.0000    1.0100    1.0200    1.0300
    1.0400    1.0500    1.0600    1.0700    1.0800    1.0900    1.1000    1.1100
    1.1200    1.1300    1.1400    1.1500    1.1600    1.1700    1.1800    1.1900
    1.2000    1.2100    1.2200    1.2300    1.2400    1.2500    1.2600    1.2700
    1.2800    1.2900    1.3000    1.3100    1.3200    1.3300    1.3400    1.3500
    1.3600    1.3700    1.3800    1.3900    1.4000    1.4100    1.4200    1.4300
    1.4400    1.4500    1.4600    1.4700    1.4800    1.4900    1.5000    1.5100
    1.5200    1.5300    1.5400    1.5500    1.5600    1.5700    1.5800    1.5900
    1.6000    1.6100    1.6200    1.6300    1.6400    1.6500    1.6600    1.6700
    1.6800    1.6900    1.7000    1.7100    1.7200    1.7300    1.7400    1.7500
    1.7600    1.7700    1.7800    1.7900    1.8000    1.8100    1.8200    1.8300
    1.8400    1.8500    1.8600    1.8700    1.8800    1.8900    1.9000    1.9100
    1.9200    1.9300    1.9400    1.9500    1.9600    1.9700    1.9800    1.9900
    2.0000    2.0100    2.0200    2.0300    2.0400    2.0500    2.0600    2.0700
    2.0800    2.0900    2.1000    2.1100    2.1200    2.1300    2.1400    2.1500
    2.1600    2.1700    2.1800    2.1900    2.2000    2.2100    2.2200    2.2300
    2.2400    2.2500    2.2600    2.2700    2.2800    2.2900    2.3000    2.3100
    2.3200    2.3300    2.3400    2.3500    2.3600    2.3700    2.3800    2.3900
    2.4000    2.4100    2.4200    2.4300    2.4400    2.4500    2.4600    2.4700
    2.4800    2.4900    2.5000    2.5100    2.5200    2.5300    2.5400    2.5500
    2.5600    2.5700    2.5800    2.5900    2.6000    2.6100    2.6200    2.6300
    2.6400    2.6500    2.6600    2.6700    2.6800    2.6900    2.7000    2.7100
    2.7200    2.7300    2.7400    2.7500    2.7600    2.7700    2.7800    2.7900
    2.8000    2.8100    2.8200    2.8300    2.8400    2.8500    2.8600    2.8700
    2.8800    2.8900    2.9000    2.9100    2.9200    2.9300    2.9400    2.9500
    2.9600    2.9700    2.9800    2.9900    3.0000    3.0100    3.0200    3.0300
    3.0400    3.0500    3.0600    3.0700    3.0800    3.0900    3.1000    3.1100
    3.1200    3.1300    3.1400    3.1500    3.1600    3.1700    3.1800    3.1900
    3.2000    3.2100    3.2200    3.2300    3.2400    3.2500    3.2600    3.2700
    3.2800    3.2900    3.3000    3.3100    3.3200    3.3300    3.3400    3.3500
    3.3600    3.3700    3.3800    3.3900    3.4000    3.4100    3.4200    3.4300
    3.4400    3.4500    3.4600    3.4700    3.4800    3.4900    3.5000    3.5100
    3.5200    3.5300    3.5400    3.5500    3.5600    3.5700    3.5800    3.5900
    3.6000    3.6100    3.6200    3.6300    3.6400    3.6500    3.6600    3.6700
    3.6800    3.6900    3.7000    3.7100    3.7200    3.7300    3.7400    3.7500
    3.7600    3.7700    3.7800    3.7900    3.8000    3.8100    3.8200    3.8300
    3.8400    3.8500    3.8600    3.8700    3.8800    3.8900    3.9000    3.9100
    3.9200    3.9300    3.9400    3.9500    3.9600    3.9700    3.9800    3.9900
    4.0000    4.0100    4.0200    4.0300    4.0400    4.0500    4.0600    4.0700
    4.0800    4.0900    4.1000    4.1100    4.1200    4.1300    4.1400    4.1500
    4.1600    4.1700    4.1800    4.1900    4.2000    4.2100    4.2200    4.2300
    4.2400    4.2500    4.2600    4.2700    4.2800    4.2900    4.3000    4.3100
    4.3200    4.3300    4.3400    4.3500    4.3600    4.3700    4.3800    4.3900
    4.4000    4.4100    4.4200    4.4300    4.4400    4.4500    4.4600    4.4700
    4.4800    4.4900    4.5000    4.5100    4.5200    4.5300    4.5400    4.5500
    4.5600    4.5700    4.5800    4.5900    4.6000    4.6100    4.6200    4.6300
    4.6400    4.6500    4.6600    4.6700    4.6800    4.6900    4.7000    4.7100
    4.7200    4.7300    4.7400    4.7500    4.7600    4.7700    4.7800    4.7900
    4.8000    4.8100    4.8200    4.8300    4.8400    4.8500    4.8600    4.8700
    4.8800    4.8900    4.9000    4.9100    4.9200    4.9300    4.9400    4.9500
    4.9600    4.9700    4.9800    4.9900    5.0000    5.0100    5.0200    5.0300
    5.0400    5.0500    5.0600    5.0700    5.0800    5.0900    5.1000    5.1100
    5.1200    5.1300    5.1400    5.1500    5.1600    5.1700    5.1800    5.1900
    5.2000    5.2100    5.2200    5.2300    5.2400    5.2500    5.2600    5.2700
    5.2800    5.2900    5.3000    5.3100    5.3200    5.3300    5.3400    5.3500
    5.3600    5.3700    5.3800    5.3900    5.4000    5.4100    5.4200    5.4300
    5.4400    5.4500    5.4600    5.4700    5.4800    5.4900    5.5000    5.5100
    5.5200    5.5300    5.5400    5.5500    5.5600    5.5700    5.5800    5.5900
    5.6000    5.6100    5.6200    5.6300    5.6400    5.6500    5.6600    5.6700
    5.6800    5.6900    5.7000    5.7100    5.7200    5.7300    5.7400    5.7500
    5.7600    5.7700    5.7800    5.7900    5.8000    5.8100    5.8200    5.8300
    5.8400    5.8500    5.8600    5.8700    5.8800    5.8900    5.9000    5.9100
    5.9200    5.9300    5.9400    5.9500    5.9600    5.9700    5.9800    5.9900
    6.0000    6.0100    6.0200    6.0300    6.0400    6.0500    6.0600    6.0700
    6.0800    6.0900    6.1000    6.1100    6.1200    6.1300    6.1400    6.1500
    6.1600    6.1700    6.1800    6.1900    6.2000    6.2100    6.2200    6.2300
    6.2400    6.2500    6.2600    6.2700    6.2800    6.2900    6.3000    6.3100
    6.3200    6.3300    6.3400    6.3500    6.3600    6.3700    6.3800    6.3900
    6.4000    6.4100    6.4200    6.4300    6.4400    6.4500    6.4600    6.4700
    6.4800    6.4900    6.5000    6.5100    6.5200    6.5300    6.5400    6.5500
    6.5600    6.5700    6.5800    6.5900    6.6000    6.6100    6.6200    6.6300
    6.6400    6.6500    6.6600    6.6700    6.6800    6.6900    6.7000    6.7100
    6.7200    6.7300    6.7400    6.7500    6.7600    6.7700    6.7800    6.7900
    6.8000    6.8100    6.8200    6.8300    6.8400    6.8500    6.8600    6.8700
    6.8800    6.8900    6.9000    6.9100    6.9200    6.9300    6.9400    6.9500
    6.9600    6.9700    6.9800    6.9900    7.0000    7.0100    7.0200    7.0300
    7.0400    7.0500    7.0600    7.0700    7.0800    7.0900    7.1000    7.1100
    7.1200    7.1300    7.1400    7.1500    7.1600    7.1700    7.1800    7.1900
    7.2000    7.2100    7.2200    7.2300    7.2400    7.2500    7.2600    7.2700
    7.2800    7.2900    7.3000    7.3100    7.3200    7.3300    7.3400    7.3500
    7.3600    7.3700    7.3800    7.3900    7.4000    7.4100    7.4200    7.4300
    7.4400    7.4500    7.4600    7.4700    7.4800    7.4900
   </PP_R>
   <PP_RAB type="real"  size=" 750" columns="8">
    0.0100    0.0100    0.0100    0.0100    0.0100    0.0100    0.0100    0.0100
    0.0100    0.0100    0.0100    0.0100    0.0100    0.0100    0.0100    0.0100
    0.0100    0.0100    0.0100    0.0100    0.0100    0.0100    0.0100    0.0100
    0.0100    0.0100    0.0100    0.0100    0.0100    0.0100    0.0100    0.0100
    0.0100    0.0100    0.0100    0.0100    0.0100    0.0100    0.0100    0.0100
    0.0100    0.0100    0.0100    0.0100    0.0100    0.0100    0.0100    0.0100
    0.0100    0.0100    0.0100    0.0100    0.0100    0.0100    0.0100    0.0100
    0.0100    0.0100    0.0100    0.0100    0.0100    0.0100    0.0100    0.0100
    0.0100    0.0100    0.0100    0.0100    0.0100    0.0100    0.0100    0.0100
    0.0100    0.0100    0.0100    0.0100    0.0100    0.0100    0.0100    0.0100
    0.0100    0.0100    0.0100    0.0100    0.0100    0.0100    0.0100    0.0100
    0.0100    0.0100    0.0100    0.0100    0.0100    0.0100    0.0100    0.0100
    0.0100    0.0100    0.0100    0.0100    0.0100    0.0100    0.0100    0.0100
    0.0100    0.0100    0.0100    0.0100    0.0100    0.0100    0.0100    0.0100
    0.0100    0.0100    0.0100    0.0100    0.0100    0.0100    0.0100    0.0100
    0.0100    0.0100    0.0100    0.0100    0.0100    0.0100    0.0100    0.0100
    0.0100    0.0100    0.0100    0.0100    0.0100    0.0100    0.0100    0.0100
    0.0100    0.0100    0.0100    0.0100    0.0100    0.0100    0.0100    0.0100
    0.0100    0.0100    0.0100    0.0100    0.0100    0.0100    0.0100    0.0100
    0.0100    0.0100    0.0100    0.0100    0.0100    0.0100    0.0100    0.0100
    0.0100    0.0100    0.0100    0.0100    0.0100    0.0100    0.0100    0.0100
    0.0100    0.0100    0.0100    0.0100    0.0100    0.0100    0.0100    0.0100
    0.0100    0.0100    0.0100    0.0100    0.0100    0.0100    0.0100    0.0100
    0.0100    0.0100    0.0100    0.0100    0.0100    0.0100    0.0100    0.0100
    0.0100    0.0100    0.0100    0.0100    0.0100    0.0100    0.0100    0.0100
    0.0100    0.0100    0.0100    0.0100    0.0100    0.0100    0.0100    0.0100
    0.0100    0.0100    0.0100    0.0100    0.0100    0.0100    0.0100    0.0100
    0.0100    0.0100    0.0100    0.0100    0.0100    0.0100    0.0100    0.0100
    0.0100    0.0100    0.0100    0.0100    0.0100    0.0100    0.0100    0.0100
    0.0100    0.0100    0.0100    0.0100    0.0100    0.0100    0.0100    0.0100
    0.0100    0.0100    0.0100    0.0100    0.0100    0.0100    0.0100    0.0100
    0.0100    0.0100    0.0100    0.0100    0.0100    0.0100    0.0100    0.0100
    0.0100    0.0100    0.0100    0.0100    0.0100    0.0100    0.0100    0.0100
    0.0100    0.0100    0.0100    0.0100    0.0100    0.0100    0.0100    0.0100
    0.0100    0.0100    0.0100    0.0100    0.0100    0.0100    0.0100    0.0100
    0.0100    0.0100    0.0100    0.0100    0.0100    0.0100    0.0100    0.0100
    0.0100    0.0100    0.0100    0.0100    0.0100    0.0100    0.0100    0.0100
    0.0100    0.0100    0.0100    0.0100    0.0100    0.0100    0.0100    0.0100
    0.0100    0.0100    0.0100    0.0100    0.0100    0.0100    0.0100    0.0100
    0.0100    0.0100    0.0100    0.0100    0.0100    0.0100    0.0100    0.0100
    0.0100    0.0100    0.0100    0.0100    0.0100    0.0100    0.0100    0.0100
    0.0100    0.0100    0.0100    0.0100    0.0100    0.0100    0.0100    0.0100
    0.0100    0.0100    0.0100    0.0100    0.0100    0.0100    0.0100    0.0100
    0.0100    0.0100    0.0100    0.0100    0.0100    0.0100    0.0100    0.0100
    0.0100    0.0100    0.0100    0.0100    0.0100    0.0100    0.0100    0.0100
    0.0100    0.0100    0.0100    0.0100    0.0100    0.0100    0.0100    0.0100
    0.0100    0.0100    0.0100    0.0100    0.0100    0.0100    0.0100    0.0100
    0.0100    0.0100    0.0100    0.0100    0.0100    0.0100    0.0100    0.0100
    0.0100    0.0100    0.0100    0.0100    0.0100    0.0100    0.0100    0.0100
    0.0100    0.0100    0.0100    0.0100    0.0100    0.0100    0.0100    0.0100
    0.0100    0.0100    0.0100    0.0100    0.0100    0.0100    0.0100    0.0100
    0.0100    0.0100    0.0100    0.0100    0.0100    0.0100    0.0100    0.0100
    0.0100    0.0100    0.0100    0.0100    0.0100    0.0100    0.0100    0.0100
    0.0100    0.0100    0.0100    0.0100    0.0100    0.0100    0.0100    0.0100
    0.0100    0.0100    0.0100    0.0100    0.0100    0.0100    0.0100    0.0100
    0.0100    0.0100    0.0100    0.0100    0.0100    0.0100    0.0100    0.0100
    0.0100    0.0100    0.0100    0.0100    0.0100    0.0100    0.0100    0.0100
    0.0100    0.0100    0.0100    0.0100    0.0100    0.0100    0.0100    0.0100
    0.0100    0.0100    0.0100    0.0100    0.0100    0.0100    0.0100    0.0100
    0.0100    0.0100    0.0100    0.0100    0.0100    0.0100    0.0100    0.0100
    0.0100    0.0100    0.0100    0.0100    0.0100    0.0100    0.0100    0.0100
    0.0100    0.0100    0.0100    0.0100    0.0100    0.0100    0.0100    0.0100
    0.0100    0.0100    0.0100    0.0100    0.0100    0.0100    0.0100    0.0100
    0.0100    0.0100    0.0100    0.0100    0.0100    0.0100    0.0100    0.0100
    0.0100    0.0100    0.0100    0.0100    0.0100    0.0100    0.0100    0.0100
    0.0100    0.0100    0.0100    0.0100    0.0100    0.0100    0.0100    0.0100
    0.0100    0.0100    0.0100    0.0100    0.0100    0.0100    0.0100    0.0100
    0.0100    0.0100    0.0100    0.0100    0.0100    0.0100    0.0100    0.0100
    0.0100    0.0100    0.0100    0.0100    0.0100    0.0100    0.0100    0.0100
    0.0100    0.0100    0.0100    0.0100    0.0100    0.0100    0.0100    0.0100
    0.0100    0.0100    0.0100    0.0100    0.0100    0.0100    0.0100    0.0100
    0.0100    0.0100    0.0100    0.0100    0.0100    0.0100    0.0100    0.0100
    0.0100    0.0100    0.0100    0.0100    0.0100    0.0100    0.0100    0.0100
    0.0100    0.0100    0.0100    0.0100    0.0100    0.0100    0.0100    0.0100
    0.0100    0.0100    0.0100    0.0100    0.0100    0.0100    0.0100    0.0100
    0.0100    0.0100    0.0100    0.0100    0.0100    0.0100    0.0100    0.0100
    0.0100    0.0100    0.0100    0.0100    0.0100    0.0100    0.0100    0.0100
    0.0100    0.0100    0.0100    0.0100    0.0100    0.0100    0.0100    0.0100
    0.0100    0.0100    0.0100    0.0100    0.0100    0.0100    0.0100    0.0100
    0.0100    0.0100    0.0100    0.0100    0.0100    0.0100    0.0100    0.0100
    0.0100    0.0100    0.0100    0.0100    0.0100    0.0100    0.0100    0.0100
    0.0100    0.0100    0.0100    0.0100    0.0100    0.0100    0.0100    0.0100
    0.0100    0.0100    0.0100    0.0100    0.0100    0.0100    0.0100    0.0100
    0.0100    0.0100    0.0100    0.0100    0.0100    0.0100    0.0100    0.0100
    0.0100    0.0100    0.0100    0.0100    0.0100    0.0100    0.0100    0.0100
    0.0100    0.0100    0.0100    0.0100    0.0100    0.0100    0.0100    0.0100
    0.0100    0.0100    0.0100    0.0100    0.0100    0.0100    0.0100    0.0100
    0.0100    0.0100    0.0100    0.0100    0.0100    0.0100    0.0100    0.0100
    0.0100    0.0100    0.0100    0.0100    0.0100    0.0100    0.0100    0.0100
    0.0100    0.0100    0.0100    0.0100    0.0100    0.0100    0.0100    0.0100
    0.0100    0.0100    0.0100    0.0100    0.0100    0.0100    0.0100    0.0100
    0.0100    0.0100    0.0100    0.0100    0.0100    0.0100    0.0100    0.0100
    0.0100    0.0100    0.0100    0.0100    0.0100    0.0100    0.0100    0.0100
    0.0100    0.0100    0.0100    0.0100    0.0100    0.0100
   </PP_RAB>
 </PP_MESH>
  <PP_LOCAL type="real"  size=" 750" columns="4">
   -2.6848335003E+01   -2.6846397184E+01   -2.6840589679E+01   -2.6830930266E+01
   -2.6817448025E+01   -2.6800182582E+01   -2.6779183087E+01   -2.6754507005E+01
   -2.6726218768E+01   -2.6694388356E+01   -2.6659089858E+01   -2.6620400082E+01
   -2.6578397235E+01   -2.6533159736E+01   -2.6484765157E+01   -2.6433289331E+01
   -2.6378805620E+01   -2.6321384339E+01   -2.6261092341E+01   -2.6197992734E+01
   -2.6132144737E+01   -2.6063603636E+01   -2.5992420843E+01   -2.5918644033E+01
   -2.5842317342E+01   -2.5763481620E+01   -2.5682174724E+01   -2.5598431827E+01
   -2.5512285765E+01   -2.5423767371E+01   -2.5332905833E+01   -2.5239729033E+01
   -2.5144263889E+01   -2.5046536684E+01   -2.4946573375E+01   -2.4844399894E+01
   -2.4740042427E+01   -2.4633527673E+01   -2.4524883083E+01   -2.4414137079E+01
   -2.4301319249E+01   -2.4186460525E+01   -2.4069593335E+01   -2.3950751738E+01
   -2.3829971533E+01   -2.3707290353E+01   -2.3582747735E+01   -2.3456385177E+01
   -2.3328246167E+01   -2.3198376206E+01   -2.3066822806E+01   -2.2933635472E+01
   -2.2798865681E+01   -2.2662566828E+01   -2.2524794177E+01   -2.2385604790E+01
   -2.2245057450E+01   -2.2103212568E+01   -2.1960132090E+01   -2.1815879390E+01
   -2.1670519156E+01   -2.1524117276E+01   -2.1376740710E+01   -2.1228457368E+01
   -2.1079335978E+01   -2.0929445952E+01   -2.0778857258E+01   -2.0627640278E+01
   -2.0475865684E+01   -2.0323604295E+01   -2.0170926954E+01   -2.0017904395E+01
   -1.9864607116E+01   -1.9711105257E+01   -1.9557468482E+01   -1.9403765861E+01
   -1.9250065761E+01   -1.9096435738E+01   -1.8942942440E+01   -1.8789651509E+01
   -1.8636627487E+01   -1.8483933741E+01   -1.8331632373E+01   -1.8179784156E+01
   -1.8028448461E+01   -1.7877683196E+01   -1.7727544753E+01   -1.7578087951E+01
   -1.7429365996E+01   -1.7281430439E+01   -1.7134331138E+01   -1.6988116230E+01
   -1.6842832104E+01   -1.6698523378E+01   -1.6555232882E+01   -1.6413001643E+01
   -1.6271868874E+01   -1.6131871966E+01   -1.5993046481E+01   -1.5855426154E+01
   -1.5719042888E+01   -1.5583926756E+01   -1.5450106005E+01   -1.5317607060E+01
   -1.5186454528E+01   -1.5056671207E+01   -1.4928278087E+01   -1.4801294360E+01
   -1.4675737428E+01   -1.4551622903E+01   -1.4428964620E+01   -1.4307774634E+01
   -1.4188063232E+01   -1.4069838927E+01   -1.3953108466E+01   -1.3837876828E+01
   -1.3724147218E+01   -1.3611921323E+01   -1.3501197353E+01   -1.3391974448E+01
   -1.3284261763E+01   -1.3177996575E+01   -1.3073150824E+01   -1.2969805840E+01
   -1.2867944158E+01   -1.2767527305E+01   -1.2668548297E+01   -1.2570990120E+01
   -1.2474833309E+01   -1.2380057049E+01   -1.2286638475E+01   -1.2194552504E+01
   -1.2103772099E+01   -1.2014269485E+01   -1.1926017229E+01   -1.1838989102E+01
   -1.1753159777E+01   -1.1668504805E+01   -1.1585000595E+01   -1.1502624382E+01
   -1.1421354187E+01   -1.1341168780E+01   -1.1262047649E+01   -1.1183970963E+01
   -1.1106919540E+01   -1.1030874813E+01   -1.0955818800E+01   -1.0881734070E+01
   -1.0808603714E+01   -1.0736411315E+01   -1.0665140917E+01   -1.0594777000E+01
   -1.0525304446E+01   -1.0456708521E+01   -1.0388974842E+01   -1.0322089355E+01
   -1.0256038309E+01   -1.0190808235E+01   -1.0126385924E+01   -1.0062758403E+01
   -9.9999129156E+00   -9.9378369051E+00   -9.8765179936E+00   -9.8159439660E+00
   -9.7561027537E+00   -9.6969824194E+00   -9.6385711439E+00   -9.5808572126E+00
   -9.5238290032E+00   -9.4674749769E+00   -9.4117836638E+00   -9.3567436757E+00
   -9.3023437361E+00   -9.2485727176E+00   -9.1954197418E+00   -9.1428742278E+00
   -9.0909258329E+00   -9.0395644313E+00   -8.9887801292E+00   -8.9385632546E+00
   -8.8889043502E+00   -8.8397941679E+00   -8.7912236625E+00   -8.7431839869E+00
   -8.6956664860E+00   -8.6486626921E+00   -8.6021643194E+00   -8.5561632595E+00
   -8.5106515765E+00   -8.4656215022E+00   -8.4210654324E+00   -8.3769759218E+00
   -8.3333456804E+00   -8.2901675691E+00   -8.2474345961E+00   -8.2051399132E+00
   -8.1632768117E+00   -8.1218387191E+00   -8.0808191961E+00   -8.0402119322E+00
   -8.0000107437E+00   -7.9602095696E+00   -7.9208024690E+00   -7.8817836182E+00
   -7.8431473075E+00   -7.8048879387E+00   -7.7670000223E+00   -7.7294781749E+00
   -7.6923171166E+00   -7.6555116686E+00   -7.6190567506E+00   -7.5829473788E+00
   -7.5471786633E+00   -7.5117458062E+00   -7.4766440990E+00   -7.4418689210E+00
   -7.4074157371E+00   -7.3732800957E+00   -7.3394576269E+00   -7.3059440406E+00
   -7.2727351248E+00   -7.2398267437E+00   -7.2072148358E+00   -7.1748954128E+00
   -7.1428645574E+00   -7.1111184221E+00   -7.0796532272E+00   -7.0484652600E+00
   -7.0175508727E+00   -6.9869064812E+00   -6.9565285637E+00   -6.9264136597E+00
   -6.8965583680E+00   -6.8669593459E+00   -6.8376133080E+00   -6.8085170246E+00
   -6.7796673208E+00   -6.7510610754E+00   -6.7226952195E+00   -6.6945667357E+00
   -6.6666726569E+00   -6.6390100650E+00   -6.6115760904E+00   -6.5843679106E+00
   -6.5573827495E+00   -6.5306178763E+00   -6.5040706043E+00   -6.4777382908E+00
   -6.4516183353E+00   -6.4257081794E+00   -6.4000053054E+00   -6.3745072359E+00
   -6.3492115327E+00   -6.3241157961E+00   -6.2992176643E+00   -6.2745148126E+00
   -6.2500049526E+00   -6.2256858313E+00   -6.2015552309E+00   -6.1776109677E+00
   -6.1538508917E+00   -6.1302728858E+00   -6.1068748652E+00   -6.0836547768E+00
   -6.0606105986E+00   -6.0377403392E+00   -6.0150420372E+00   -5.9925137603E+00
   -5.9701536053E+00   -5.9479596973E+00   -5.9259301890E+00   -5.9040632605E+00
   -5.8823571186E+00   -5.8608099965E+00   -5.8394201531E+00   -5.8181858725E+00
   -5.7971054639E+00   -5.7761772608E+00   -5.7553996206E+00   -5.7347709244E+00
   -5.7142895764E+00   -5.6939540035E+00   -5.6737626547E+00   -5.6537140014E+00
   -5.6338065360E+00   -5.6140387725E+00   -5.5944092453E+00   -5.5749165096E+00
   -5.5555591404E+00   -5.5363357325E+00   -5.5172449000E+00   -5.4982852763E+00
   -5.4794555133E+00   -5.4607542814E+00   -5.4421802690E+00   -5.4237321823E+00
   -5.4054087451E+00   -5.3872086982E+00   -5.3691307996E+00   -5.3511738236E+00
   -5.3333365609E+00   -5.3156178185E+00   -5.2980164190E+00   -5.2805312005E+00
   -5.2631610165E+00   -5.2459047356E+00   -5.2287612410E+00   -5.2117294306E+00
   -5.1948082166E+00   -5.1779965252E+00   -5.1612932964E+00   -5.1446974841E+00
   -5.1282080554E+00   -5.1118239906E+00   -5.0955442830E+00   -5.0793679389E+00
   -5.0632939768E+00   -5.0473214279E+00   -5.0314493354E+00   -5.0156767546E+00
   -5.0000027525E+00   -4.9844264080E+00   -4.9689468110E+00   -4.9535630631E+00
   -4.9382742767E+00   -4.9230795753E+00   -4.9079780930E+00   -4.8929689747E+00
   -4.8780513755E+00   -4.8632244609E+00   -4.8484874065E+00   -4.8338393979E+00
   -4.8192796304E+00   -4.8048073090E+00   -4.7904216484E+00   -4.7761218724E+00
   -4.7619072142E+00   -4.7477769161E+00   -4.7337302294E+00   -4.7197664140E+00
   -4.7058847388E+00   -4.6920844812E+00   -4.6783649269E+00   -4.6647253701E+00
   -4.6511651131E+00   -4.6376834665E+00   -4.6242797484E+00   -4.6109532854E+00
   -4.5977034112E+00   -4.5845294677E+00   -4.5714308039E+00   -4.5584067764E+00
   -4.5454567492E+00   -4.5325800933E+00   -4.5197761870E+00   -4.5070444153E+00
   -4.4943841706E+00   -4.4817948517E+00   -4.4692758642E+00   -4.4568266205E+00
   -4.4444465393E+00   -4.4321350458E+00   -4.4198915717E+00   -4.4077155549E+00
   -4.3956064392E+00   -4.3835636750E+00   -4.3715867182E+00   -4.3596750311E+00
   -4.3478280814E+00   -4.3360453429E+00   -4.3243262949E+00   -4.3126704224E+00
   -4.3010772159E+00   -4.2895461715E+00   -4.2780767905E+00   -4.2666685795E+00
   -4.2553210505E+00   -4.2440337207E+00   -4.2328061122E+00   -4.2216377524E+00
   -4.2105281735E+00   -4.1994769126E+00   -4.1884835118E+00   -4.1775475177E+00
   -4.1666684821E+00   -4.1558459609E+00   -4.1450795150E+00   -4.1343687097E+00
   -4.1237131148E+00   -4.1131123044E+00   -4.1025658572E+00   -4.0920733561E+00
   -4.0816343882E+00   -4.0712485448E+00   -4.0609154215E+00   -4.0506346178E+00
   -4.0404057374E+00   -4.0302283879E+00   -4.0201021809E+00   -4.0100267318E+00
   -4.0000016601E+00   -3.9900265887E+00   -3.9801011445E+00   -3.9702249582E+00
   -3.9603976639E+00   -3.9506188995E+00   -3.9408883064E+00   -3.9312055295E+00
   -3.9215702172E+00   -3.9119820213E+00   -3.9024405972E+00   -3.8929456034E+00
   -3.8834967018E+00   -3.8740935576E+00   -3.8647358393E+00   -3.8554232184E+00
   -3.8461553698E+00   -3.8369319713E+00   -3.8277527039E+00   -3.8186172516E+00
   -3.8095253015E+00   -3.8004765436E+00   -3.7914706709E+00   -3.7825073791E+00
   -3.7735863670E+00   -3.7647073361E+00   -3.7558699909E+00   -3.7470740384E+00
   -3.7383191885E+00   -3.7296051538E+00   -3.7209316494E+00   -3.7122983934E+00
   -3.7037051062E+00   -3.6951515108E+00   -3.6866373330E+00   -3.6781623008E+00
   -3.6697261449E+00   -3.6613285984E+00   -3.6529693970E+00   -3.6446482784E+00
   -3.6363649832E+00   -3.6281192539E+00   -3.6199108356E+00   -3.6117394756E+00
   -3.6036049236E+00   -3.5955069314E+00   -3.5874452531E+00   -3.5794196450E+00
   -3.5714298654E+00   -3.5634756751E+00   -3.5555568368E+00   -3.5476731152E+00
   -3.5398242774E+00   -3.5320100924E+00   -3.5242303310E+00   -3.5164847664E+00
   -3.5087731736E+00   -3.5010953296E+00   -3.4934510133E+00   -3.4858400056E+00
   -3.4782620892E+00   -3.4707170489E+00   -3.4632046710E+00   -3.4557247441E+00
   -3.4482770582E+00   -3.4408614054E+00   -3.4334775794E+00   -3.4261253758E+00
   -3.4188045919E+00   -3.4115150267E+00   -3.4042564810E+00   -3.3970287571E+00
   -3.3898316592E+00   -3.3826649929E+00   -3.3755285658E+00   -3.3684221868E+00
   -3.3613456666E+00   -3.3542988173E+00   -3.3472814527E+00   -3.3402933882E+00
   -3.3333344407E+00   -3.3264044285E+00   -3.3195031715E+00   -3.3126304912E+00
   -3.3057862104E+00   -3.2989701535E+00   -3.2921821462E+00   -3.2854220157E+00
   -3.2786895906E+00   -3.2719847011E+00   -3.2653071785E+00   -3.2586568555E+00
   -3.2520335664E+00   -3.2454371467E+00   -3.2388674331E+00   -3.2323242638E+00
   -3.2258074782E+00   -3.2193169172E+00   -3.2128524227E+00   -3.2064138380E+00
   -3.2000010076E+00   -3.1936137774E+00   -3.1872519943E+00   -3.1809155065E+00
   -3.1746041636E+00   -3.1683178161E+00   -3.1620563158E+00   -3.1558195158E+00
   -3.1496072700E+00   -3.1434194339E+00   -3.1372558639E+00   -3.1311164173E+00
   -3.1250009531E+00   -3.1189093308E+00   -3.1128414113E+00   -3.1067970565E+00
   -3.1007761295E+00   -3.0947784943E+00   -3.0888040160E+00   -3.0828525607E+00
   -3.0769239957E+00   -3.0710181891E+00   -3.0651350101E+00   -3.0592743289E+00
   -3.0534360167E+00   -3.0476199458E+00   -3.0418259892E+00   -3.0360540210E+00
   -3.0303039164E+00   -3.0245755513E+00   -3.0188688027E+00   -3.0131835484E+00
   -3.0075196673E+00   -3.0018770390E+00   -2.9962555442E+00   -2.9906550643E+00
   -2.9850754817E+00   -2.9795166798E+00   -2.9739785425E+00   -2.9684609549E+00
   -2.9629638028E+00   -2.9574869729E+00   -2.9520303528E+00   -2.9465938307E+00
   -2.9411772958E+00   -2.9357806381E+00   -2.9304037484E+00   -2.9250465183E+00
   -2.9197088401E+00   -2.9143906070E+00   -2.9090917130E+00   -2.9038120527E+00
   -2.8985515216E+00   -2.8933100160E+00   -2.8880874327E+00   -2.8828836696E+00
   -2.8776986251E+00   -2.8725321984E+00   -2.8673842893E+00   -2.8622547985E+00
   -2.8571436273E+00   -2.8520506778E+00   -2.8469758527E+00   -2.8419190554E+00
   -2.8368801900E+00   -2.8318591613E+00   -2.8268558747E+00   -2.8218702365E+00
   -2.8169021533E+00   -2.8119515326E+00   -2.8070182826E+00   -2.8021023119E+00
   -2.7972035299E+00   -2.7923218466E+00   -2.7874571727E+00   -2.7826094195E+00
   -2.7777784987E+00   -2.7729643229E+00   -2.7681668051E+00   -2.7633858591E+00
   -2.7586213991E+00   -2.7538733400E+00   -2.7491415973E+00   -2.7444260871E+00
   -2.7397267258E+00   -2.7350434307E+00   -2.7303761196E+00   -2.7257247108E+00
   -2.7210891230E+00   -2.7164692759E+00   -2.7118650892E+00   -2.7072764836E+00
   -2.7027033800E+00   -2.6981457001E+00   -2.6936033659E+00   -2.6890763000E+00
   -2.6845644257E+00   -2.6800676665E+00   -2.6755859467E+00   -2.6711191909E+00
   -2.6666673243E+00   -2.6622302726E+00   -2.6578079620E+00   -2.6534003190E+00
   -2.6490072709E+00   -2.6446287453E+00   -2.6402646703E+00   -2.6359149745E+00
   -2.6315795869E+00   -2.6272584370E+00   -2.6229514549E+00   -2.6186585709E+00