<UPF version="2.0.1">
  <PP_INFO>

 This pseudopotential file has been produced using the code
 ONCVPSP  (Optimized Norm-Conservinng Vanderbilt PSeudopotential)
 scalar-relativistic version 3.3.1 12/12/2017 by D. R. Hamann
 The code is available through a link at URL www.mat-simresearch.com.
 Documentation with the package provides a full discription of the
 input data below.


 While it is not required under the terms of the GNU GPL, it is
 suggested that you cite D. R. Hamann, Phys. Rev. B 88, 085117 (2013)
 in any publication using these pseudopotentials.

    <PP_INPUTFILE>
# ATOM AND REFERENCE CONFIGURATION
# atsym  z   nc   nv     iexc    psfile
  Ar 18.00    3    2 -116133      upf
#
#   n    l    f        energy (Ha)
    1    0    2.00
    2    0    2.00
    2    1    6.00
    3    0    2.00
    3    1    6.00
#
# PSEUDOPOTENTIAL AND OPTIMIZATION
# lmax
    1
#
#   l,   rc,      ep,       ncon, nbas, qcut
    0   2.67516  -0.88937    5    8   7.97831
    1   1.78325  -0.37606    5    8   7.45116
#
# LOCAL POTENTIAL
# lloc, lpopt,  rc(5),   dvloc0
    4    5   1.40476      0.00000
#
# VANDERBILT-KLEINMAN-BYLANDER PROJECTORs
# l, nproj, debl
    0    2   0.88023
    1    2   3.20739
#
# MODEL CORE CHARGE
# icmod, fcfact, rcfact
    0   0.00000   0.00000
#
# LOG DERIVATIVE ANALYSIS
# epsh1, epsh2, depsh
   -5.00    3.00    0.02
#
# OUTPUT GRID
# rlmax, drl
    6.00    0.01
#
# TEST CONFIGURATIONS
# ncnf
    0
# nvcnf
#   n    l    f
    </PP_INPUTFILE>
  </PP_INFO>
  <!--                               -->
  <!-- END OF HUMAN READABLE SECTION -->
  <!--                               -->
    <PP_HEADER
       generated="Generated using ONCVPSP code by D. R. Hamann"
       author="anonymous"
       date="210904"
       comment=""
       element="Ar"
       pseudo_type="NC"
       relativistic="scalar"
       is_ultrasoft="F"
       is_paw="F"
       is_coulomb="F"
       has_so="F"
       has_wfc="F"
       has_gipaw="F"
       core_correction="F"
       functional="PBESOL"
       z_valence="    8.00"
       total_psenergy="  -4.21680703131E+01"
       rho_cutoff="   9.37000000000E+00"
       l_max="1"
       l_local="-1"
       mesh_size="   938"
       number_of_wfc="2"
       number_of_proj="4"/>
 <PP_MESH>
   <PP_R type="real"  size=" 938" columns="8">
    0.0000    0.0100    0.0200    0.0300    0.0400    0.0500    0.0600    0.0700
    0.0800    0.0900    0.1000    0.1100    0.1200    0.1300    0.1400    0.1500
    0.1600    0.1700    0.1800    0.1900    0.2000    0.2100    0.2200    0.2300
    0.2400    0.2500    0.2600    0.2700    0.2800    0.2900    0.3000    0.3100
    0.3200    0.3300    0.3400    0.3500    0.3600    0.3700    0.3800    0.3900
    0.4000    0.4100    0.4200    0.4300    0.4400    0.4500    0.4600    0.4700
    0.4800    0.4900    0.5000    0.5100    0.5200    0.5300    0.5400    0.5500
    0.5600    0.5700    0.5800    0.5900    0.6000    0.6100    0.6200    0.6300
    0.6400    0.6500    0.6600    0.6700    0.6800    0.6900    0.7000    0.7100
    0.7200    0.7300    0.7400    0.7500    0.7600    0.7700    0.7800    0.7900
    0.8000    0.8100    0.8200    0.8300    0.8400    0.8500    0.8600    0.8700
    0.8800    0.8900    0.9000    0.9100    0.9200    0.9300    0.9400    0.9500
    0.9600    0.9700    0.9800    0.9900    1.0000    1.0100    1.0200    1.0300
    1.0400    1.0500    1.0600    1.0700    1.0800    1.0900    1.1000    1.1100
    1.1200    1.1300    1.1400    1.1500    1.1600    1.1700    1.1800    1.1900
    1.2000    1.2100    1.2200    1.2300    1.2400    1.2500    1.2600    1.2700
    1.2800    1.2900    1.3000    1.3100    1.3200    1.3300    1.3400    1.3500
    1.3600    1.3700    1.3800    1.3900    1.4000    1.4100    1.4200    1.4300
    1.4400    1.4500    1.4600    1.4700    1.4800    1.4900    1.5000    1.5100
    1.5200    1.5300    1.5400    1.5500    1.5600    1.5700    1.5800    1.5900
    1.6000    1.6100    1.6200    1.6300    1.6400    1.6500    1.6600    1.6700
    1.6800    1.6900    1.7000    1.7100    1.7200    1.7300    1.7400    1.7500
    1.7600    1.7700    1.7800    1.7900    1.8000    1.8100    1.8200    1.8300
    1.8400    1.8500    1.8600    1.8700    1.8800    1.8900    1.9000    1.9100
    1.9200    1.9300    1.9400    1.9500    1.9600    1.9700    1.9800    1.9900
    2.0000    2.0100    2.0200    2.0300    2.0400    2.0500    2.0600    2.0700
    2.0800    2.0900    2.1000    2.1100    2.1200    2.1300    2.1400    2.1500
    2.1600    2.1700    2.1800    2.1900    2.2000    2.2100    2.2200    2.2300
    2.2400    2.2500    2.2600    2.2700    2.2800    2.2900    2.3000    2.3100
    2.3200    2.3300    2.3400    2.3500    2.3600    2.3700    2.3800    2.3900
    2.4000    2.4100    2.4200    2.4300    2.4400    2.4500    2.4600    2.4700
    2.4800    2.4900    2.5000    2.5100    2.5200    2.5300    2.5400    2.5500
    2.5600    2.5700    2.5800    2.5900    2.6000    2.6100    2.6200    2.6300
    2.6400    2.6500    2.6600    2.6700    2.6800    2.6900    2.7000    2.7100
    2.7200    2.7300    2.7400    2.7500    2.7600    2.7700    2.7800    2.7900
    2.8000    2.8100    2.8200    2.8300    2.8400    2.8500    2.8600    2.8700
    2.8800    2.8900    2.9000    2.9100    2.9200    2.9300    2.9400    2.9500
    2.9600    2.9700    2.9800    2.9900    3.0000    3.0100    3.0200    3.0300
    3.0400    3.0500    3.0600    3.0700    3.0800    3.0900    3.1000    3.1100
    3.1200    3.1300    3.1400    3.1500    3.1600    3.1700    3.1800    3.1900
    3.2000    3.2100    3.2200    3.2300    3.2400    3.2500    3.2600    3.2700
    3.2800    3.2900    3.3000    3.3100    3.3200    3.3300    3.3400    3.3500
    3.3600    3.3700    3.3800    3.3900    3.4000    3.4100    3.4200    3.4300
    3.4400    3.4500    3.4600    3.4700    3.4800    3.4900    3.5000    3.5100
    3.5200    3.5300    3.5400    3.5500    3.5600    3.5700    3.5800    3.5900
    3.6000    3.6100    3.6200    3.6300    3.6400    3.6500    3.6600    3.6700
    3.6800    3.6900    3.7000    3.7100    3.7200    3.7300    3.7400    3.7500
    3.7600    3.7700    3.7800    3.7900    3.8000    3.8100    3.8200    3.8300
    3.8400    3.8500    3.8600    3.8700    3.8800    3.8900    3.9000    3.9100
    3.9200    3.9300    3.9400    3.9500    3.9600    3.9700    3.9800    3.9900
    4.0000    4.0100    4.0200    4.0300    4.0400    4.0500    4.0600    4.0700
    4.0800    4.0900    4.1000    4.1100    4.1200    4.1300    4.1400    4.1500
    4.1600    4.1700    4.1800    4.1900    4.2000    4.2100    4.2200    4.2300
    4.2400    4.2500    4.2600    4.2700    4.2800    4.2900    4.3000    4.3100
    4.3200    4.3300    4.3400    4.3500    4.3600    4.3700    4.3800    4.3900
    4.4000    4.4100    4.4200    4.4300    4.4400    4.4500    4.4600    4.4700
    4.4800    4.4900    4.5000    4.5100    4.5200    4.5300    4.5400    4.5500
    4.5600    4.5700    4.5800    4.5900    4.6000    4.6100    4.6200    4.6300
    4.6400    4.6500    4.6600    4.6700    4.6800    4.6900    4.7000    4.7100
    4.7200    4.7300    4.7400    4.7500    4.7600    4.7700    4.7800    4.7900
    4.8000    4.8100    4.8200    4.8300    4.8400    4.8500    4.8600    4.8700
    4.8800    4.8900    4.9000    4.9100    4.9200    4.9300    4.9400    4.9500
    4.9600    4.9700    4.9800    4.9900    5.0000    5.0100    5.0200    5.0300
    5.0400    5.0500    5.0600    5.0700    5.0800    5.0900    5.1000    5.1100
    5.1200    5.1300    5.1400    5.1500    5.1600    5.1700    5.1800    5.1900
    5.2000    5.2100    5.2200    5.2300    5.2400    5.2500    5.2600    5.2700
    5.2800    5.2900    5.3000    5.3100    5.3200    5.3300    5.3400    5.3500
    5.3600    5.3700    5.3800    5.3900    5.4000    5.4100    5.4200    5.4300
    5.4400    5.4500    5.4600    5.4700    5.4800    5.4900    5.5000    5.5100
    5.5200    5.5300    5.5400    5.5500    5.5600    5.5700    5.5800    5.5900
    5.6000    5.6100    5.6200    5.6300    5.6400    5.6500    5.6600    5.6700
    5.6800    5.6900    5.7000    5.7100    5.7200    5.7300    5.7400    5.7500
    5.7600    5.7700    5.7800    5.7900    5.8000    5.8100    5.8200    5.8300
    5.8400    5.8500    5.8600    5.8700    5.8800    5.8900    5.9000    5.9100
    5.9200    5.9300    5.9400    5.9500    5.9600    5.9700    5.9800    5.9900
    6.0000    6.0100    6.0200    6.0300    6.0400    6.0500    6.0600    6.0700
    6.0800    6.0900    6.1000    6.1100    6.1200    6.1300    6.1400    6.1500
    6.1600    6.1700    6.1800    6.1900    6.2000    6.2100    6.2200    6.2300
    6.2400    6.2500    6.2600    6.2700    6.2800    6.2900    6.3000    6.3100
    6.3200    6.3300    6.3400    6.3500    6.3600    6.3700    6.3800    6.3900
    6.4000    6.4100    6.4200    6.4300    6.4400    6.4500    6.4600    6.4700
    6.4800    6.4900    6.5000    6.5100    6.5200    6.5300    6.5400    6.5500
    6.5600    6.5700    6.5800    6.5900    6.6000    6.6100    6.6200    6.6300
    6.6400    6.6500    6.6600    6.6700    6.6800    6.6900    6.7000    6.7100
    6.7200    6.7300    6.7400    6.7500    6.7600    6.7700    6.7800    6.7900
    6.8000    6.8100    6.8200    6.8300    6.8400    6.8500    6.8600    6.8700
    6.8800    6.8900    6.9000    6.9100    6.9200    6.9300    6.9400    6.9500
    6.9600    6.9700    6.9800    6.9900    7.0000    7.0100    7.0200    7.0300
    7.0400    7.0500    7.0600    7.0700    7.0800    7.0900    7.1000    7.1100
    7.1200    7.1300    7.1400    7.1500    7.1600    7.1700    7.1800    7.1900
    7.2000    7.2100    7.2200    7.2300    7.2400    7.2500    7.2600    7.2700
    7.2800    7.2900    7.3000    7.3100    7.3200    7.3300    7.3400    7.3500
    7.3600    7.3700    7.3800    7.3900    7.4000    7.4100    7.4200    7.4300
    7.4400    7.4500    7.4600    7.4700    7.4800    7.4900    7.5000    7.5100
    7.5200    7.5300    7.5400    7.5500    7.5600    7.5700    7.5800    7.5900
    7.6000    7.6100    7.6200    7.6300    7.6400    7.6500    7.6600    7.6700
    7.6800    7.6900    7.7000    7.7100    7.7200    7.7300    7.7400    7.7500
    7.7600    7.7700    7.7800    7.7900    7.8000    7.8100    7.8200    7.8300
    7.8400    7.8500    7.8600    7.8700    7.8800    7.8900    7.9000    7.9100
    7.9200    7.9300    7.9400    7.9500    7.9600    7.9700    7.9800    7.9900
    8.0000    8.0100    8.0200    8.0300    8.0400    8.0500    8.0600    8.0700
    8.0800    8.0900    8.1000    8.1100    8.1200    8.1300    8.1400    8.1500
    8.1600    8.1700    8.1800    8.1900    8.2000    8.2100    8.2200    8.2300
    8.2400    8.2500    8.2600    8.2700    8.2800    8.2900    8.3000    8.3100
    8.3200    8.3300    8.3400    8.3500    8.3600    8.3700    8.3800    8.3900
    8.4000    8.4100    8.4200    8.4300    8.4400    8.4500    8.4600    8.4700
    8.4800    8.4900    8.5000    8.5100    8.5200    8.5300    8.5400    8.5500
    8.5600    8.5700    8.5800    8.5900    8.6000    8.6100    8.6200    8.6300
    8.6400    8.6500    8.6600    8.6700    8.6800    8.6900    8.7000    8.7100
    8.7200    8.7300    8.7400    8.7500    8.7600    8.7700    8.7800    8.7900
    8.8000    8.8100    8.8200    8.8300    8.8400    8.8500    8.8600    8.8700
    8.8800    8.8900    8.9000    8.9100    8.9200    8.9300    8.9400    8.9500
    8.9600    8.9700    8.9800    8.9900    9.0000    9.0100    9.0200    9.0300
    9.0400    9.0500    9.0600    9.0700    9.0800    9.0900    9.1000    9.1100
    9.1200    9.1300    9.1400    9.1500    9.1600    9.1700    9.1800    9.1900
    9.2000    9.2100    9.2200    9.2300    9.2400    9.2500    9.2600    9.2700
    9.2800    9.2900    9.3000    9.3100    9.3200    9.3300    9.3400    9.3500
    9.3600    9.3700
   </PP_R>
   <PP_RAB type="real"  size=" 938" columns="8">
    0.0100    0.0100    0.0100    0.0100    0.0100    0.0100    0.0100    0.0100
    0.0100    0.0100    0.0100    0.0100    0.0100    0.0100    0.0100    0.0100
    0.0100    0.0100    0.0100    0.0100    0.0100    0.0100    0.0100    0.0100
    0.0100    0.0100    0.0100    0.0100    0.0100    0.0100    0.0100    0.0100
    0.0100    0.0100    0.0100    0.0100    0.0100    0.0100    0.0100    0.0100
    0.0100    0.0100    0.0100    0.0100    0.0100    0.0100    0.0100    0.0100
    0.0100    0.0100    0.0100    0.0100    0.0100    0.0100    0.0100    0.0100
    0.0100    0.0100    0.0100    0.0100    0.0100    0.0100    0.0100    0.0100
    0.0100    0.0100    0.0100    0.0100    0.0100    0.0100    0.0100    0.0100
    0.0100    0.0100    0.0100    0.0100    0.0100    0.0100    0.0100    0.0100
    0.0100    0.0100    0.0100    0.0100    0.0100    0.0100    0.0100    0.0100
    0.0100    0.0100    0.0100    0.0100    0.0100    0.0100    0.0100    0.0100
    0.0100    0.0100    0.0100    0.0100    0.0100    0.0100    0.0100    0.0100
    0.0100    0.0100    0.0100    0.0100    0.0100    0.0100    0.0100    0.0100
    0.0100    0.0100    0.0100    0.0100    0.0100    0.0100    0.0100    0.0100
    0.0100    0.0100    0.0100    0.0100    0.0100    0.0100    0.0100    0.0100
    0.0100    0.0100    0.0100    0.0100    0.0100    0.0100    0.0100    0.0100
    0.0100    0.0100    0.0100    0.0100    0.0100    0.0100    0.0100    0.0100
    0.0100    0.0100    0.0100    0.0100    0.0100    0.0100    0.0100    0.0100
    0.0100    0.0100    0.0100    0.0100    0.0100    0.0100    0.0100    0.0100
    0.0100    0.0100    0.0100    0.0100    0.0100    0.0100    0.0100    0.0100
    0.0100    0.0100    0.0100    0.0100    0.0100    0.0100    0.0100    0.0100
    0.0100    0.0100    0.0100    0.0100    0.0100    0.0100    0.0100    0.0100
    0.0100    0.0100    0.0100    0.0100    0.0100    0.0100    0.0100    0.0100
    0.0100    0.0100    0.0100    0.0100    0.0100    0.0100    0.0100    0.0100
    0.0100    0.0100    0.0100    0.0100    0.0100    0.0100    0.0100    0.0100
    0.0100    0.0100    0.0100    0.0100    0.0100    0.0100    0.0100    0.0100
    0.0100    0.0100    0.0100    0.0100    0.0100    0.0100    0.0100    0.0100
    0.0100    0.0100    0.0100    0.0100    0.0100    0.0100    0.0100    0.0100
    0.0100    0.0100    0.0100    0.0100    0.0100    0.0100    0.0100    0.0100
    0.0100    0.0100    0.0100    0.0100    0.0100    0.0100    0.0100    0.0100
    0.0100    0.0100    0.0100    0.0100    0.0100    0.0100    0.0100    0.0100
    0.0100    0.0100    0.0100    0.0100    0.0100    0.0100    0.0100    0.0100
    0.0100    0.0100    0.0100    0.0100    0.0100    0.0100    0.0100    0.0100
    0.0100    0.0100    0.0100    0.0100    0.0100    0.0100    0.0100    0.0100
    0.0100    0.0100    0.0100    0.0100    0.0100    0.0100    0.0100    0.0100
    0.0100    0.0100    0.0100    0.0100    0.0100    0.0100    0.0100    0.0100
    0.0100    0.0100    0.0100    0.0100    0.0100    0.0100    0.0100    0.0100
    0.0100    0.0100    0.0100    0.0100    0.0100    0.0100    0.0100    0.0100
    0.0100    0.0100    0.0100    0.0100    0.0100    0.0100    0.0100    0.0100
    0.0100    0.0100    0.0100    0.0100    0.0100    0.0100    0.0100    0.0100
    0.0100    0.0100    0.0100    0.0100    0.0100    0.0100    0.0100    0.0100
    0.0100    0.0100    0.0100    0.0100    0.0100    0.0100    0.0100    0.0100
    0.0100    0.0100    0.0100    0.0100    0.0100    0.0100    0.0100    0.0100
    0.0100    0.0100    0.0100    0.0100    0.0100    0.0100    0.0100    0.0100
    0.0100    0.0100    0.0100    0.0100    0.0100    0.0100    0.0100    0.0100
    0.0100    0.0100    0.0100    0.0100    0.0100    0.0100    0.0100    0.0100
    0.0100    0.0100    0.0100    0.0100    0.0100    0.0100    0.0100    0.0100
    0.0100    0.0100    0.0100    0.0100    0.0100    0.0100    0.0100    0.0100
    0.0100    0.0100    0.0100    0.0100    0.0100    0.0100    0.0100    0.0100
    0.0100    0.0100    0.0100    0.0100    0.0100    0.0100    0.0100    0.0100
    0.0100    0.0100    0.0100    0.0100    0.0100    0.0100    0.0100    0.0100
    0.0100    0.0100    0.0100    0.0100    0.0100    0.0100    0.0100    0.0100
    0.0100    0.0100    0.0100    0.0100    0.0100    0.0100    0.0100    0.0100
    0.0100    0.0100    0.0100    0.0100    0.0100    0.0100    0.0100    0.0100
    0.0100    0.0100    0.0100    0.0100    0.0100    0.0100    0.0100    0.0100
    0.0100    0.0100    0.0100    0.0100    0.0100    0.0100    0.0100    0.0100
    0.0100    0.0100    0.0100    0.0100    0.0100    0.0100    0.0100    0.0100
    0.0100    0.0100    0.0100    0.0100    0.0100    0.0100    0.0100    0.0100
    0.0100    0.0100    0.0100    0.0100    0.0100    0.0100    0.0100    0.0100
    0.0100    0.0100    0.0100    0.0100    0.0100    0.0100    0.0100    0.0100
    0.0100    0.0100    0.0100    0.0100    0.0100    0.0100    0.0100    0.0100
    0.0100    0.0100    0.0100    0.0100    0.0100    0.0100    0.0100    0.0100
    0.0100    0.0100    0.0100    0.0100    0.0100    0.0100    0.0100    0.0100
    0.0100    0.0100    0.0100    0.0100    0.0100    0.0100    0.0100    0.0100
    0.0100    0.0100    0.0100    0.0100    0.0100    0.0100    0.0100    0.0100
    0.0100    0.0100    0.0100    0.0100    0.0100    0.0100    0.0100    0.0100
    0.0100    0.0100    0.0100    0.0100    0.0100    0.0100    0.0100    0.0100
    0.0100    0.0100    0.0100    0.0100    0.0100    0.0100    0.0100    0.0100
    0.0100    0.0100    0.0100    0.0100    0.0100    0.0100    0.0100    0.0100
    0.0100    0.0100    0.0100    0.0100    0.0100    0.0100    0.0100    0.0100
    0.0100    0.0100    0.0100    0.0100    0.0100    0.0100    0.0100    0.0100
    0.0100    0.0100    0.0100    0.0100    0.0100    0.0100    0.0100    0.0100
    0.0100    0.0100    0.0100    0.0100    0.0100    0.0100    0.0100    0.0100
    0.0100    0.0100    0.0100    0.0100    0.0100    0.0100    0.0100    0.0100
    0.0100    0.0100    0.0100    0.0100    0.0100    0.0100    0.0100    0.0100
    0.0100    0.0100    0.0100    0.0100    0.0100    0.0100    0.0100    0.0100
    0.0100    0.0100    0.0100    0.0100    0.0100    0.0100    0.0100    0.0100
    0.0100    0.0100    0.0100    0.0100    0.0100    0.0100    0.0100    0.0100
    0.0100    0.0100    0.0100    0.0100    0.0100    0.0100    0.0100    0.0100
    0.0100    0.0100    0.0100    0.0100    0.0100    0.0100    0.0100    0.0100
    0.0100    0.0100    0.0100    0.0100    0.0100    0.0100    0.0100    0.0100
    0.0100    0.0100    0.0100    0.0100    0.0100    0.0100    0.0100    0.0100
    0.0100    0.0100    0.0100    0.0100    0.0100    0.0100    0.0100    0.0100
    0.0100    0.0100    0.0100    0.0100    0.0100    0.0100    0.0100    0.0100
    0.0100    0.0100    0.0100    0.0100    0.0100    0.0100    0.0100    0.0100
    0.0100    0.0100    0.0100    0.0100    0.0100    0.0100    0.0100    0.0100
    0.0100    0.0100    0.0100    0.0100    0.0100    0.0100    0.0100    0.0100
    0.0100    0.0100    0.0100    0.0100    0.0100    0.0100    0.0100    0.0100
    0.0100    0.0100    0.0100    0.0100    0.0100    0.0100    0.0100    0.0100
    0.0100    0.0100    0.0100    0.0100    0.0100    0.0100    0.0100    0.0100
    0.0100    0.0100    0.0100    0.0100    0.0100    0.0100    0.0100    0.0100
    0.0100    0.0100    0.0100    0.0100    0.0100    0.0100    0.0100    0.0100
    0.0100    0.0100    0.0100    0.0100    0.0100    0.0100    0.0100    0.0100
    0.0100    0.0100    0.0100    0.0100    0.0100    0.0100    0.0100    0.0100
    0.0100    0.0100    0.0100    0.0100    0.0100    0.0100    0.0100    0.0100
    0.0100    0.0100    0.0100    0.0100    0.0100    0.0100    0.0100    0.0100
    0.0100    0.0100    0.0100    0.0100    0.0100    0.0100    0.0100    0.0100
    0.0100    0.0100    0.0100    0.0100    0.0100    0.0100    0.0100    0.0100
    0.0100    0.0100    0.0100    0.0100    0.0100    0.0100    0.0100    0.0100
    0.0100    0.0100    0.0100    0.0100    0.0100    0.0100    0.0100    0.0100
    0.0100    0.0100    0.0100    0.0100    0.0100    0.0100    0.0100    0.0100
    0.0100    0.0100    0.0100    0.0100    0.0100    0.0100    0.0100    0.0100
    0.0100    0.0100    0.0100    0.0100    0.0100    0.0100    0.0100    0.0100
    0.0100    0.0100    0.0100    0.0100    0.0100    0.0100    0.0100    0.0100
    0.0100    0.0100    0.0100    0.0100    0.0100    0.0100    0.0100    0.0100
    0.0100    0.0100    0.0100    0.0100    0.0100    0.0100    0.0100    0.0100
    0.0100    0.0100    0.0100    0.0100    0.0100    0.0100    0.0100    0.0100
    0.0100    0.0100    0.0100    0.0100    0.0100    0.0100    0.0100    0.0100
    0.0100    0.0100    0.0100    0.0100    0.0100    0.0100    0.0100    0.0100
    0.0100    0.0100    0.0100    0.0100    0.0100    0.0100    0.0100    0.0100
    0.0100    0.0100    0.0100    0.0100    0.0100    0.0100    0.0100    0.0100
    0.0100    0.0100    0.0100    0.0100    0.0100    0.0100    0.0100    0.0100
    0.0100    0.0100    0.0100    0.0100    0.0100    0.0100    0.0100    0.0100
    0.0100    0.0100    0.0100    0.0100    0.0100    0.0100    0.0100    0.0100
    0.0100    0.0100    0.0100    0.0100    0.0100    0.0100    0.0100    0.0100
    0.0100    0.0100    0.0100    0.0100    0.0100    0.0100    0.0100    0.0100
    0.0100    0.0100
   </PP_RAB>
 </PP_MESH>
  <PP_LOCAL type="real"  size=" 938" columns="4">
   -2.4718203129E+01   -2.4836226324E+01   -2.5222518214E+01   -2.5655284302E+01
   -2.5998963977E+01   -2.6206785564E+01   -2.6291499932E+01   -2.6287876349E+01
   -2.6230544296E+01   -2.6145542353E+01   -2.6049410629E+01   -2.5951250491E+01
   -2.5855275055E+01   -2.5762864478E+01   -2.5673939891E+01   -2.5587780596E+01
   -2.5503467798E+01   -2.5420104483E+01   -2.5336911156E+01   -2.5253257093E+01
   -2.5168660287E+01   -2.5082773581E+01   -2.4995365732E+01   -2.4906301574E+01
   -2.4815523112E+01   -2.4723032317E+01   -2.4628875866E+01   -2.4533131902E+01
   -2.4435898773E+01   -2.4337285696E+01   -2.4237405247E+01   -2.4136367561E+01
   -2.4034276073E+01   -2.3931224644E+01   -2.3827295841E+01   -2.3722560196E+01
   -2.3617076213E+01   -2.3510890933E+01   -2.3404040886E+01   -2.3296553282E+01
   -2.3188447300E+01   -2.3079735398E+01   -2.2970424575E+01   -2.2860517513E+01
   -2.2750013613E+01   -2.2638909869E+01   -2.2527201618E+01   -2.2414883143E+01
   -2.2301948164E+01   -2.2188390215E+01   -2.2074202936E+01   -2.1959380293E+01
   -2.1843916731E+01   -2.1727807300E+01   -2.1611047729E+01   -2.1493634494E+01
   -2.1375564866E+01   -2.1256836956E+01   -2.1137449756E+01   -2.1017403187E+01
   -2.0896698147E+01   -2.0775336573E+01   -2.0653321505E+01   -2.0530657157E+01
   -2.0407348997E+01   -2.0283403828E+01   -2.0158829877E+01   -2.0033636880E+01
   -1.9907836165E+01   -1.9781440738E+01   -1.9654465354E+01   -1.9526926588E+01
   -1.9398842888E+01   -1.9270234628E+01   -1.9141124136E+01   -1.9011535717E+01
   -1.8881495655E+01   -1.8751032207E+01   -1.8620175575E+01   -1.8488957866E+01
   -1.8357413044E+01   -1.8225576856E+01   -1.8093486753E+01   -1.7961181802E+01
   -1.7828702583E+01   -1.7696091075E+01   -1.7563390541E+01   -1.7430645401E+01
   -1.7297901105E+01   -1.7165203997E+01   -1.7032601180E+01   -1.6900140377E+01
   -1.6767869797E+01   -1.6635837996E+01   -1.6504093740E+01   -1.6372685875E+01
   -1.6241663195E+01   -1.6111074314E+01   -1.5980967547E+01   -1.5851390786E+01
   -1.5722391390E+01   -1.5594016070E+01   -1.5466310790E+01   -1.5339320665E+01
   -1.5213089863E+01   -1.5087661517E+01   -1.4963077642E+01   -1.4839379049E+01
   -1.4716605273E+01   -1.4594794503E+01   -1.4473983509E+01   -1.4354207586E+01
   -1.4235500490E+01   -1.4117894388E+01   -1.4001419801E+01   -1.3886105563E+01
   -1.3771978769E+01   -1.3659064742E+01   -1.3547386986E+01   -1.3436967156E+01
   -1.3327825020E+01   -1.3219978431E+01   -1.3113443295E+01   -1.3008233546E+01
   -1.2904361114E+01   -1.2801835907E+01   -1.2700665782E+01   -1.2600856524E+01
   -1.2502411825E+01   -1.2405333262E+01   -1.2309620272E+01   -1.2215270137E+01
   -1.2122277962E+01   -1.2030636650E+01   -1.1940336886E+01   -1.1851367114E+01
   -1.1763713514E+01   -1.1677359984E+01   -1.1592288097E+01   -1.1508477169E+01
   -1.1425904050E+01   -1.1344543116E+01   -1.1264367459E+01   -1.1185349839E+01
   -1.1107463838E+01   -1.1030683877E+01   -1.0954984992E+01   -1.0880342943E+01
   -1.0806734181E+01   -1.0734135839E+01   -1.0662525732E+01   -1.0591882341E+01
   -1.0522184805E+01   -1.0453412910E+01   -1.0385547078E+01   -1.0318568354E+01
   -1.0252458387E+01   -1.0187199421E+01   -1.0122774275E+01   -1.0059166325E+01
   -9.9963594843E+00   -9.9343381840E+00   -9.8730873514E+00   -9.8125923865E+00
   -9.7528391391E+00   -9.6938138835E+00   -9.6355032935E+00   -9.5778944163E+00
   -9.5209746456E+00   -9.4647316954E+00   -9.4091535719E+00   -9.3542285468E+00
   -9.2999451342E+00   -9.2462920547E+00   -9.1932582221E+00   -9.1408327002E+00
   -9.0890046611E+00   -9.0377634171E+00   -8.9870984092E+00   -8.9369992925E+00
   -8.8874560679E+00   -8.8384590791E+00   -8.7899989966E+00   -8.7420667877E+00
   -8.6946536192E+00   -8.6477508012E+00   -8.6013498457E+00   -8.5554424877E+00
   -8.5100206568E+00   -8.4650764919E+00   -8.4206023212E+00   -8.3765906371E+00
   -8.3330340985E+00   -8.2899255385E+00   -8.2472579622E+00   -8.2050245346E+00
   -8.1632185727E+00   -8.1218335447E+00   -8.0808630664E+00   -8.0403008962E+00
   -8.0001409308E+00   -7.9603772007E+00   -7.9210038669E+00   -7.8820152165E+00
   -7.8434056593E+00   -7.8051697237E+00   -7.7673020535E+00   -7.7297974039E+00
   -7.6926506386E+00   -7.6558567261E+00   -7.6194107366E+00   -7.5833078390E+00
   -7.5475432974E+00   -7.5121124687E+00   -7.4770107994E+00   -7.4422338230E+00
   -7.4077771570E+00   -7.3736365007E+00   -7.3398076326E+00   -7.3062864076E+00
   -7.2730687554E+00   -7.2401506774E+00   -7.2075282453E+00   -7.1751975987E+00
   -7.1431549428E+00   -7.1113965473E+00   -7.0799187438E+00   -7.0487179244E+00
   -7.0177905400E+00   -6.9871330989E+00   -6.9567421650E+00   -6.9266143564E+00
   -6.8967463444E+00   -6.8671348517E+00   -6.8377766516E+00   -6.8086685666E+00
   -6.7798074674E+00   -6.7511902721E+00   -6.7228139447E+00   -6.6946754948E+00
   -6.6667719763E+00   -6.6391004868E+00   -6.6116581668E+00   -6.5844421991E+00
   -6.5574498079E+00   -6.5306782584E+00   -6.5041248561E+00   -6.4777869463E+00
   -6.4516619135E+00   -6.4257471808E+00   -6.4000402099E+00   -6.3745384999E+00
   -6.3492395875E+00   -6.3241410463E+00   -6.2992404863E+00   -6.2745355536E+00
   -6.2500239302E+00   -6.2257033332E+00   -6.2015715148E+00   -6.1776262614E+00
   -6.1538653937E+00   -6.1302867658E+00   -6.1068882656E+00   -6.0836678131E+00
   -6.0606233615E+00   -6.0377528964E+00   -6.0150544360E+00   -5.9925260308E+00
   -5.9701657631E+00   -5.9479717480E+00   -5.9259421324E+00   -5.9040750930E+00
   -5.8823688357E+00   -5.8608215945E+00   -5.8394316299E+00   -5.8181972288E+00
   -5.7971167003E+00   -5.7761883785E+00   -5.7554106206E+00   -5.7347818076E+00
   -5.7143003436E+00   -5.6939646548E+00   -5.6737731903E+00   -5.6537244213E+00
   -5.6338168407E+00   -5.6140489624E+00   -5.5944193209E+00   -5.5749264714E+00
   -5.5555689887E+00   -5.5363454677E+00   -5.5172545227E+00   -5.4982947867E+00
   -5.4794649119E+00   -5.4607635686E+00   -5.4421894452E+00   -5.4237412480E+00
   -5.4054177007E+00   -5.3872175442E+00   -5.3691395363E+00   -5.3511824514E+00
   -5.3333450804E+00   -5.3156262301E+00   -5.2980247230E+00   -5.2805393975E+00
   -5.2631691070E+00   -5.2459127200E+00   -5.2287691197E+00   -5.2117372042E+00
   -5.1948158855E+00   -5.1780040899E+00   -5.1613007575E+00   -5.1447048421E+00
   -5.1282153107E+00   -5.1118311439E+00   -5.0955513348E+00   -5.0793748897E+00
   -5.0633008272E+00   -5.0473281785E+00   -5.0314559869E+00   -5.0156833075E+00
   -5.0000092076E+00   -4.9844327657E+00   -4.9689530722E+00   -4.9535692283E+00
   -4.9382803467E+00   -4.9230855508E+00   -4.9079839747E+00   -4.8929747633E+00
   -4.8780570717E+00   -4.8632300656E+00   -4.8484929205E+00   -4.8338448219E+00
   -4.8192849652E+00   -4.8048125555E+00   -4.7904268074E+00   -4.7761269448E+00
   -4.7619122009E+00   -4.7477818179E+00   -4.7337350472E+00   -4.7197711488E+00
   -4.7058893916E+00   -4.6920890528E+00   -4.6783694183E+00   -4.6647297822E+00
   -4.6511694470E+00   -4.6376877231E+00   -4.6242839288E+00   -4.6109573904E+00
   -4.5977074421E+00   -4.5845334253E+00   -4.5714346894E+00   -4.5584105908E+00
   -4.5454604935E+00   -4.5325837687E+00   -4.5197797944E+00   -4.5070479559E+00
   -4.4943876455E+00   -4.4817982619E+00   -4.4692792108E+00   -4.4568299046E+00
   -4.4444497620E+00   -4.4321382083E+00   -4.4198946750E+00   -4.4077186001E+00
   -4.3956094275E+00   -4.3835666074E+00   -4.3715895959E+00   -4.3596778551E+00
   -4.3478308529E+00   -4.3360480630E+00   -4.3243289647E+00   -4.3126730429E+00
   -4.3010797884E+00   -4.2895486969E+00   -4.2780792699E+00   -4.2666710140E+00
   -4.2553234413E+00   -4.2440360687E+00   -4.2328084186E+00   -4.2216400182E+00
   -4.2105303997E+00   -4.1994791003E+00   -4.1884856620E+00   -4.1775496315E+00
   -4.1666705604E+00   -4.1558480048E+00   -4.1450815254E+00   -4.1343706877E+00
   -4.1237150612E+00   -4.1131142204E+00   -4.1025677436E+00   -4.0920752139E+00
   -4.0816362182E+00   -4.0712503481E+00   -4.0609171989E+00   -4.0506363702E+00
   -4.0404074657E+00   -4.0302300930E+00   -4.0201038636E+00   -4.0100283930E+00
   -4.0000033005E+00   -3.9900282092E+00   -3.9801027460E+00   -3.9702265413E+00
   -3.9603992295E+00   -3.9506204483E+00   -3.9408898391E+00   -3.9312070468E+00
   -3.9215717199E+00   -3.9119835102E+00   -3.9024420728E+00   -3.8929470664E+00
   -3.8834981529E+00   -3.8740949974E+00   -3.8647372684E+00   -3.8554246375E+00
   -3.8461567794E+00   -3.8369333720E+00   -3.8277540963E+00   -3.8186186363E+00