<UPF version="2.0.1">
  <PP_INFO>

 This pseudopotential file has been produced using the code
 ONCVPSP  (Optimized Norm-Conservinng Vanderbilt PSeudopotential)
 fully-relativistic version 3.3.1 12/12/2017 by D. R. Hamann
 The code is available through a link at URL www.mat-simresearch.com.
 Documentation with the package provides a full discription of the
 input data below.


 While it is not required under the terms of the GNU GPL, it is
 suggested that you cite D. R. Hamann, Phys. Rev. B 88, 085117 (2013)
 in any publication using these pseudopotentials.

    <PP_INPUTFILE>
# ATOM AND REFERENCE CONFIGURATION
# atsym  z   nc   nv     iexc    psfile
  Ar 18.00    3    2 -116133      upf
#
#   n    l    f        energy (Ha)
    1    0    2.00
    2    0    2.00
    2    1    6.00
    3    0    2.00
    3    1    6.00
#
# PSEUDOPOTENTIAL AND OPTIMIZATION
# lmax
    1
#
#   l,   rc,     ep,   ncon, nbas, qcut
    0   2.67516  -0.88930    5    8   7.97831
    1   1.78325  -0.37388    5    8   7.45116
#
# LOCAL POTENTIAL
# lloc, lpopt,  rc(5),   dvloc0
    4    5   1.40476      0.00000
#
# VANDERBILT-KLEINMAN-BYLANDER PROJECTORs
# l, nproj, debl
    0    2   0.88016
    1    2   3.20523
#
# MODEL CORE CHARGE
# icmod, fcfact, rcfact
    0   0.00000   0.00000
#
# LOG DERIVATIVE ANALYSIS
# epsh1, epsh2, depsh
   -5.00    3.00    0.02
#
# OUTPUT GRID
# rlmax, drl
    6.00    0.01
#
# TEST CONFIGURATIONS
# ncnf
    0
# nvcnf
#   n    l    f
    </PP_INPUTFILE>
  </PP_INFO>
  <!--                               -->
  <!-- END OF HUMAN READABLE SECTION -->
  <!--                               -->
    <PP_HEADER
       generated="Generated using ONCVPSP code by D. R. Hamann"
       author="anonymous"
       date="210904"
       comment=""
       element="Ar"
       pseudo_type="NC"
       relativistic="full"
       is_ultrasoft="F"
       is_paw="F"
       is_coulomb="F"
       has_so="T"
       has_wfc="F"
       has_gipaw="F"
       core_correction="F"
       functional="PBESOL"
       z_valence="    8.00"
       total_psenergy="  -4.21647134668E+01"
       rho_cutoff="   9.37000000000E+00"
       l_max="1"
       l_local="-1"
       mesh_size="   938"
       number_of_wfc="3"
       number_of_proj="6"/>
 <PP_MESH>
   <PP_R type="real"  size=" 938" columns="8">
    0.0000    0.0100    0.0200    0.0300    0.0400    0.0500    0.0600    0.0700
    0.0800    0.0900    0.1000    0.1100    0.1200    0.1300    0.1400    0.1500
    0.1600    0.1700    0.1800    0.1900    0.2000    0.2100    0.2200    0.2300
    0.2400    0.2500    0.2600    0.2700    0.2800    0.2900    0.3000    0.3100
    0.3200    0.3300    0.3400    0.3500    0.3600    0.3700    0.3800    0.3900
    0.4000    0.4100    0.4200    0.4300    0.4400    0.4500    0.4600    0.4700
    0.4800    0.4900    0.5000    0.5100    0.5200    0.5300    0.5400    0.5500
    0.5600    0.5700    0.5800    0.5900    0.6000    0.6100    0.6200    0.6300
    0.6400    0.6500    0.6600    0.6700    0.6800    0.6900    0.7000    0.7100
    0.7200    0.7300    0.7400    0.7500    0.7600    0.7700    0.7800    0.7900
    0.8000    0.8100    0.8200    0.8300    0.8400    0.8500    0.8600    0.8700
    0.8800    0.8900    0.9000    0.9100    0.9200    0.9300    0.9400    0.9500
    0.9600    0.9700    0.9800    0.9900    1.0000    1.0100    1.0200    1.0300
    1.0400    1.0500    1.0600    1.0700    1.0800    1.0900    1.1000    1.1100
    1.1200    1.1300    1.1400    1.1500    1.1600    1.1700    1.1800    1.1900
    1.2000    1.2100    1.2200    1.2300    1.2400    1.2500    1.2600    1.2700
    1.2800    1.2900    1.3000    1.3100    1.3200    1.3300    1.3400    1.3500
    1.3600    1.3700    1.3800    1.3900    1.4000    1.4100    1.4200    1.4300
    1.4400    1.4500    1.4600    1.4700    1.4800    1.4900    1.5000    1.5100
    1.5200    1.5300    1.5400    1.5500    1.5600    1.5700    1.5800    1.5900
    1.6000    1.6100    1.6200    1.6300    1.6400    1.6500    1.6600    1.6700
    1.6800    1.6900    1.7000    1.7100    1.7200    1.7300    1.7400    1.7500
    1.7600    1.7700    1.7800    1.7900    1.8000    1.8100    1.8200    1.8300
    1.8400    1.8500    1.8600    1.8700    1.8800    1.8900    1.9000    1.9100
    1.9200    1.9300    1.9400    1.9500    1.9600    1.9700    1.9800    1.9900
    2.0000    2.0100    2.0200    2.0300    2.0400    2.0500    2.0600    2.0700
    2.0800    2.0900    2.1000    2.1100    2.1200    2.1300    2.1400    2.1500
    2.1600    2.1700    2.1800    2.1900    2.2000    2.2100    2.2200    2.2300
    2.2400    2.2500    2.2600    2.2700    2.2800    2.2900    2.3000    2.3100
    2.3200    2.3300    2.3400    2.3500    2.3600    2.3700    2.3800    2.3900
    2.4000    2.4100    2.4200    2.4300    2.4400    2.4500    2.4600    2.4700
    2.4800    2.4900    2.5000    2.5100    2.5200    2.5300    2.5400    2.5500
    2.5600    2.5700    2.5800    2.5900    2.6000    2.6100    2.6200    2.6300
    2.6400    2.6500    2.6600    2.6700    2.6800    2.6900    2.7000    2.7100
    2.7200    2.7300    2.7400    2.7500    2.7600    2.7700    2.7800    2.7900
    2.8000    2.8100    2.8200    2.8300    2.8400    2.8500    2.8600    2.8700
    2.8800    2.8900    2.9000    2.9100    2.9200    2.9300    2.9400    2.9500
    2.9600    2.9700    2.9800    2.9900    3.0000    3.0100    3.0200    3.0300
    3.0400    3.0500    3.0600    3.0700    3.0800    3.0900    3.1000    3.1100
    3.1200    3.1300    3.1400    3.1500    3.1600    3.1700    3.1800    3.1900
    3.2000    3.2100    3.2200    3.2300    3.2400    3.2500    3.2600    3.2700
    3.2800    3.2900    3.3000    3.3100    3.3200    3.3300    3.3400    3.3500
    3.3600    3.3700    3.3800    3.3900    3.4000    3.4100    3.4200    3.4300
    3.4400    3.4500    3.4600    3.4700    3.4800    3.4900    3.5000    3.5100
    3.5200    3.5300    3.5400    3.5500    3.5600    3.5700    3.5800    3.5900
    3.6000    3.6100    3.6200    3.6300    3.6400    3.6500    3.6600    3.6700
    3.6800    3.6900    3.7000    3.7100    3.7200    3.7300    3.7400    3.7500
    3.7600    3.7700    3.7800    3.7900    3.8000    3.8100    3.8200    3.8300
    3.8400    3.8500    3.8600    3.8700    3.8800    3.8900    3.9000    3.9100
    3.9200    3.9300    3.9400    3.9500    3.9600    3.9700    3.9800    3.9900
    4.0000    4.0100    4.0200    4.0300    4.0400    4.0500    4.0600    4.0700
    4.0800    4.0900    4.1000    4.1100    4.1200    4.1300    4.1400    4.1500
    4.1600    4.1700    4.1800    4.1900    4.2000    4.2100    4.2200    4.2300
    4.2400    4.2500    4.2600    4.2700    4.2800    4.2900    4.3000    4.3100
    4.3200    4.3300    4.3400    4.3500    4.3600    4.3700    4.3800    4.3900
    4.4000    4.4100    4.4200    4.4300    4.4400    4.4500    4.4600    4.4700
    4.4800    4.4900    4.5000    4.5100    4.5200    4.5300    4.5400    4.5500
    4.5600    4.5700    4.5800    4.5900    4.6000    4.6100    4.6200    4.6300
    4.6400    4.6500    4.6600    4.6700    4.6800    4.6900    4.7000    4.7100
    4.7200    4.7300    4.7400    4.7500    4.7600    4.7700    4.7800    4.7900
    4.8000    4.8100    4.8200    4.8300    4.8400    4.8500    4.8600    4.8700
    4.8800    4.8900    4.9000    4.9100    4.9200    4.9300    4.9400    4.9500
    4.9600    4.9700    4.9800    4.9900    5.0000    5.0100    5.0200    5.0300
    5.0400    5.0500    5.0600    5.0700    5.0800    5.0900    5.1000    5.1100
    5.1200    5.1300    5.1400    5.1500    5.1600    5.1700    5.1800    5.1900
    5.2000    5.2100    5.2200    5.2300    5.2400    5.2500    5.2600    5.2700
    5.2800    5.2900    5.3000    5.3100    5.3200    5.3300    5.3400    5.3500
    5.3600    5.3700    5.3800    5.3900    5.4000    5.4100    5.4200    5.4300
    5.4400    5.4500    5.4600    5.4700    5.4800    5.4900    5.5000    5.5100
    5.5200    5.5300    5.5400    5.5500    5.5600    5.5700    5.5800    5.5900
    5.6000    5.6100    5.6200    5.6300    5.6400    5.6500    5.6600    5.6700
    5.6800    5.6900    5.7000    5.7100    5.7200    5.7300    5.7400    5.7500
    5.7600    5.7700    5.7800    5.7900    5.8000    5.8100    5.8200    5.8300
    5.8400    5.8500    5.8600    5.8700    5.8800    5.8900    5.9000    5.9100
    5.9200    5.9300    5.9400    5.9500    5.9600    5.9700    5.9800    5.9900
    6.0000    6.0100    6.0200    6.0300    6.0400    6.0500    6.0600    6.0700
    6.0800    6.0900    6.1000    6.1100    6.1200    6.1300    6.1400    6.1500
    6.1600    6.1700    6.1800    6.1900    6.2000    6.2100    6.2200    6.2300
    6.2400    6.2500    6.2600    6.2700    6.2800    6.2900    6.3000    6.3100
    6.3200    6.3300    6.3400    6.3500    6.3600    6.3700    6.3800    6.3900
    6.4000    6.4100    6.4200    6.4300    6.4400    6.4500    6.4600    6.4700
    6.4800    6.4900    6.5000    6.5100    6.5200    6.5300    6.5400    6.5500
    6.5600    6.5700    6.5800    6.5900    6.6000    6.6100    6.6200    6.6300
    6.6400    6.6500    6.6600    6.6700    6.6800    6.6900    6.7000    6.7100
    6.7200    6.7300    6.7400    6.7500    6.7600    6.7700    6.7800    6.7900
    6.8000    6.8100    6.8200    6.8300    6.8400    6.8500    6.8600    6.8700
    6.8800    6.8900    6.9000    6.9100    6.9200    6.9300    6.9400    6.9500
    6.9600    6.9700    6.9800    6.9900    7.0000    7.0100    7.0200    7.0300
    7.0400    7.0500    7.0600    7.0700    7.0800    7.0900    7.1000    7.1100
    7.1200    7.1300    7.1400    7.1500    7.1600    7.1700    7.1800    7.1900
    7.2000    7.2100    7.2200    7.2300    7.2400    7.2500    7.2600    7.2700
    7.2800    7.2900    7.3000    7.3100    7.3200    7.3300    7.3400    7.3500
    7.3600    7.3700    7.3800    7.3900    7.4000    7.4100    7.4200    7.4300
    7.4400    7.4500    7.4600    7.4700    7.4800    7.4900    7.5000    7.5100
    7.5200    7.5300    7.5400    7.5500    7.5600    7.5700    7.5800    7.5900
    7.6000    7.6100    7.6200    7.6300    7.6400    7.6500    7.6600    7.6700
    7.6800    7.6900    7.7000    7.7100    7.7200    7.7300    7.7400    7.7500
    7.7600    7.7700    7.7800    7.7900    7.8000    7.8100    7.8200    7.8300
    7.8400    7.8500    7.8600    7.8700    7.8800    7.8900    7.9000    7.9100
    7.9200    7.9300    7.9400    7.9500    7.9600    7.9700    7.9800    7.9900
    8.0000    8.0100    8.0200    8.0300    8.0400    8.0500    8.0600    8.0700
    8.0800    8.0900    8.1000    8.1100    8.1200    8.1300    8.1400    8.1500
    8.1600    8.1700    8.1800    8.1900    8.2000    8.2100    8.2200    8.2300
    8.2400    8.2500    8.2600    8.2700    8.2800    8.2900    8.3000    8.3100
    8.3200    8.3300    8.3400    8.3500    8.3600    8.3700    8.3800    8.3900
    8.4000    8.4100    8.4200    8.4300    8.4400    8.4500    8.4600    8.4700
    8.4800    8.4900    8.5000    8.5100    8.5200    8.5300    8.5400    8.5500
    8.5600    8.5700    8.5800    8.5900    8.6000    8.6100    8.6200    8.6300
    8.6400    8.6500    8.6600    8.6700    8.6800    8.6900    8.7000    8.7100
    8.7200    8.7300    8.7400    8.7500    8.7600    8.7700    8.7800    8.7900
    8.8000    8.8100    8.8200    8.8300    8.8400    8.8500    8.8600    8.8700
    8.8800    8.8900    8.9000    8.9100    8.9200    8.9300    8.9400    8.9500
    8.9600    8.9700    8.9800    8.9900    9.0000    9.0100    9.0200    9.0300
    9.0400    9.0500    9.0600    9.0700    9.0800    9.0900    9.1000    9.1100
    9.1200    9.1300    9.1400    9.1500    9.1600    9.1700    9.1800    9.1900
    9.2000    9.2100    9.2200    9.2300    9.2400    9.2500    9.2600    9.2700
    9.2800    9.2900    9.3000    9.3100    9.3200    9.3300    9.3400    9.3500
    9.3600    9.3700
   </PP_R>
   <PP_RAB type="real"  size=" 938" columns="8">
    0.0100    0.0100    0.0100    0.0100    0.0100    0.0100    0.0100    0.0100
    0.0100    0.0100    0.0100    0.0100    0.0100    0.0100    0.0100    0.0100
    0.0100    0.0100    0.0100    0.0100    0.0100    0.0100    0.0100    0.0100
    0.0100    0.0100    0.0100    0.0100    0.0100    0.0100    0.0100    0.0100
    0.0100    0.0100    0.0100    0.0100    0.0100    0.0100    0.0100    0.0100
    0.0100    0.0100    0.0100    0.0100    0.0100    0.0100    0.0100    0.0100
    0.0100    0.0100    0.0100    0.0100    0.0100    0.0100    0.0100    0.0100
    0.0100    0.0100    0.0100    0.0100    0.0100    0.0100    0.0100    0.0100
    0.0100    0.0100    0.0100    0.0100    0.0100    0.0100    0.0100    0.0100
    0.0100    0.0100    0.0100    0.0100    0.0100    0.0100    0.0100    0.0100
    0.0100    0.0100    0.0100    0.0100    0.0100    0.0100    0.0100    0.0100
    0.0100    0.0100    0.0100    0.0100    0.0100    0.0100    0.0100    0.0100
    0.0100    0.0100    0.0100    0.0100    0.0100    0.0100    0.0100    0.0100
    0.0100    0.0100    0.0100    0.0100    0.0100    0.0100    0.0100    0.0100
    0.0100    0.0100    0.0100    0.0100    0.0100    0.0100    0.0100    0.0100
    0.0100    0.0100    0.0100    0.0100    0.0100    0.0100    0.0100    0.0100
    0.0100    0.0100    0.0100    0.0100    0.0100    0.0100    0.0100    0.0100
    0.0100    0.0100    0.0100    0.0100    0.0100    0.0100    0.0100    0.0100
    0.0100    0.0100    0.0100    0.0100    0.0100    0.0100    0.0100    0.0100
    0.0100    0.0100    0.0100    0.0100    0.0100    0.0100    0.0100    0.0100
    0.0100    0.0100    0.0100    0.0100    0.0100    0.0100    0.0100    0.0100
    0.0100    0.0100    0.0100    0.0100    0.0100    0.0100    0.0100    0.0100
    0.0100    0.0100    0.0100    0.0100    0.0100    0.0100    0.0100    0.0100
    0.0100    0.0100    0.0100    0.0100    0.0100    0.0100    0.0100    0.0100
    0.0100    0.0100    0.0100    0.0100    0.0100    0.0100    0.0100    0.0100
    0.0100    0.0100    0.0100    0.0100    0.0100    0.0100    0.0100    0.0100
    0.0100    0.0100    0.0100    0.0100    0.0100    0.0100    0.0100    0.0100
    0.0100    0.0100    0.0100    0.0100    0.0100    0.0100    0.0100    0.0100
    0.0100    0.0100    0.0100    0.0100    0.0100    0.0100    0.0100    0.0100
    0.0100    0.0100    0.0100    0.0100    0.0100    0.0100    0.0100    0.0100
    0.0100    0.0100    0.0100    0.0100    0.0100    0.0100    0.0100    0.0100
    0.0100    0.0100    0.0100    0.0100    0.0100    0.0100    0.0100    0.0100
    0.0100    0.0100    0.0100    0.0100    0.0100    0.0100    0.0100    0.0100
    0.0100    0.0100    0.0100    0.0100    0.0100    0.0100    0.0100    0.0100
    0.0100    0.0100    0.0100    0.0100    0.0100    0.0100    0.0100    0.0100
    0.0100    0.0100    0.0100    0.0100    0.0100    0.0100    0.0100    0.0100
    0.0100    0.0100    0.0100    0.0100    0.0100    0.0100    0.0100    0.0100
    0.0100    0.0100    0.0100    0.0100    0.0100    0.0100    0.0100    0.0100
    0.0100    0.0100    0.0100    0.0100    0.0100    0.0100    0.0100    0.0100
    0.0100    0.0100    0.0100    0.0100    0.0100    0.0100    0.0100    0.0100
    0.0100    0.0100    0.0100    0.0100    0.0100    0.0100    0.0100    0.0100
    0.0100    0.0100    0.0100    0.0100    0.0100    0.0100    0.0100    0.0100
    0.0100    0.0100    0.0100    0.0100    0.0100    0.0100    0.0100    0.0100
    0.0100    0.0100    0.0100    0.0100    0.0100    0.0100    0.0100    0.0100
    0.0100    0.0100    0.0100    0.0100    0.0100    0.0100    0.0100    0.0100
    0.0100    0.0100    0.0100    0.0100    0.0100    0.0100    0.0100    0.0100
    0.0100    0.0100    0.0100    0.0100    0.0100    0.0100    0.0100    0.0100
    0.0100    0.0100    0.0100    0.0100    0.0100    0.0100    0.0100    0.0100
    0.0100    0.0100    0.0100    0.0100    0.0100    0.0100    0.0100    0.0100
    0.0100    0.0100    0.0100    0.0100    0.0100    0.0100    0.0100    0.0100
    0.0100    0.0100    0.0100    0.0100    0.0100    0.0100    0.0100    0.0100
    0.0100    0.0100    0.0100    0.0100    0.0100    0.0100    0.0100    0.0100
    0.0100    0.0100    0.0100    0.0100    0.0100    0.0100    0.0100    0.0100
    0.0100    0.0100    0.0100    0.0100    0.0100    0.0100    0.0100    0.0100
    0.0100    0.0100    0.0100    0.0100    0.0100    0.0100    0.0100    0.0100
    0.0100    0.0100    0.0100    0.0100    0.0100    0.0100    0.0100    0.0100
    0.0100    0.0100    0.0100    0.0100    0.0100    0.0100    0.0100    0.0100
    0.0100    0.0100    0.0100    0.0100    0.0100    0.0100    0.0100    0.0100
    0.0100    0.0100    0.0100    0.0100    0.0100    0.0100    0.0100    0.0100
    0.0100    0.0100    0.0100    0.0100    0.0100    0.0100    0.0100    0.0100
    0.0100    0.0100    0.0100    0.0100    0.0100    0.0100    0.0100    0.0100
    0.0100    0.0100    0.0100    0.0100    0.0100    0.0100    0.0100    0.0100
    0.0100    0.0100    0.0100    0.0100    0.0100    0.0100    0.0100    0.0100
    0.0100    0.0100    0.0100    0.0100    0.0100    0.0100    0.0100    0.0100
    0.0100    0.0100    0.0100    0.0100    0.0100    0.0100    0.0100    0.0100
    0.0100    0.0100    0.0100    0.0100    0.0100    0.0100    0.0100    0.0100
    0.0100    0.0100    0.0100    0.0100    0.0100    0.0100    0.0100    0.0100
    0.0100    0.0100    0.0100    0.0100    0.0100    0.0100    0.0100    0.0100
    0.0100    0.0100    0.0100    0.0100    0.0100    0.0100    0.0100    0.0100
    0.0100    0.0100    0.0100    0.0100    0.0100    0.0100    0.0100    0.0100
    0.0100    0.0100    0.0100    0.0100    0.0100    0.0100    0.0100    0.0100
    0.0100    0.0100    0.0100    0.0100    0.0100    0.0100    0.0100    0.0100
    0.0100    0.0100    0.0100    0.0100    0.0100    0.0100    0.0100    0.0100
    0.0100    0.0100    0.0100    0.0100    0.0100    0.0100    0.0100    0.0100
    0.0100    0.0100    0.0100    0.0100    0.0100    0.0100    0.0100    0.0100
    0.0100    0.0100    0.0100    0.0100    0.0100    0.0100    0.0100    0.0100
    0.0100    0.0100    0.0100    0.0100    0.0100    0.0100    0.0100    0.0100
    0.0100    0.0100    0.0100    0.0100    0.0100    0.0100    0.0100    0.0100
    0.0100    0.0100    0.0100    0.0100    0.0100    0.0100    0.0100    0.0100
    0.0100    0.0100    0.0100    0.0100    0.0100    0.0100    0.0100    0.0100
    0.0100    0.0100    0.0100    0.0100    0.0100    0.0100    0.0100    0.0100
    0.0100    0.0100    0.0100    0.0100    0.0100    0.0100    0.0100    0.0100
    0.0100    0.0100    0.0100    0.0100    0.0100    0.0100    0.0100    0.0100
    0.0100    0.0100    0.0100    0.0100    0.0100    0.0100    0.0100    0.0100
    0.0100    0.0100    0.0100    0.0100    0.0100    0.0100    0.0100    0.0100
    0.0100    0.0100    0.0100    0.0100    0.0100    0.0100    0.0100    0.0100
    0.0100    0.0100    0.0100    0.0100    0.0100    0.0100    0.0100    0.0100
    0.0100    0.0100    0.0100    0.0100    0.0100    0.0100    0.0100    0.0100
    0.0100    0.0100    0.0100    0.0100    0.0100    0.0100    0.0100    0.0100
    0.0100    0.0100    0.0100    0.0100    0.0100    0.0100    0.0100    0.0100
    0.0100    0.0100    0.0100    0.0100    0.0100    0.0100    0.0100    0.0100
    0.0100    0.0100    0.0100    0.0100    0.0100    0.0100    0.0100    0.0100
    0.0100    0.0100    0.0100    0.0100    0.0100    0.0100    0.0100    0.0100
    0.0100    0.0100    0.0100    0.0100    0.0100    0.0100    0.0100    0.0100
    0.0100    0.0100    0.0100    0.0100    0.0100    0.0100    0.0100    0.0100
    0.0100    0.0100    0.0100    0.0100    0.0100    0.0100    0.0100    0.0100
    0.0100    0.0100    0.0100    0.0100    0.0100    0.0100    0.0100    0.0100
    0.0100    0.0100    0.0100    0.0100    0.0100    0.0100    0.0100    0.0100
    0.0100    0.0100    0.0100    0.0100    0.0100    0.0100    0.0100    0.0100
    0.0100    0.0100    0.0100    0.0100    0.0100    0.0100    0.0100    0.0100
    0.0100    0.0100    0.0100    0.0100    0.0100    0.0100    0.0100    0.0100
    0.0100    0.0100    0.0100    0.0100    0.0100    0.0100    0.0100    0.0100
    0.0100    0.0100    0.0100    0.0100    0.0100    0.0100    0.0100    0.0100
    0.0100    0.0100    0.0100    0.0100    0.0100    0.0100    0.0100    0.0100
    0.0100    0.0100    0.0100    0.0100    0.0100    0.0100    0.0100    0.0100
    0.0100    0.0100    0.0100    0.0100    0.0100    0.0100    0.0100    0.0100
    0.0100    0.0100    0.0100    0.0100    0.0100    0.0100    0.0100    0.0100
    0.0100    0.0100    0.0100    0.0100    0.0100    0.0100    0.0100    0.0100
    0.0100    0.0100    0.0100    0.0100    0.0100    0.0100    0.0100    0.0100
    0.0100    0.0100    0.0100    0.0100    0.0100    0.0100    0.0100    0.0100
    0.0100    0.0100    0.0100    0.0100    0.0100    0.0100    0.0100    0.0100
    0.0100    0.0100    0.0100    0.0100    0.0100    0.0100    0.0100    0.0100
    0.0100    0.0100    0.0100    0.0100    0.0100    0.0100    0.0100    0.0100
    0.0100    0.0100    0.0100    0.0100    0.0100    0.0100    0.0100    0.0100
    0.0100    0.0100    0.0100    0.0100    0.0100    0.0100    0.0100    0.0100
    0.0100    0.0100    0.0100    0.0100    0.0100    0.0100    0.0100    0.0100
    0.0100    0.0100    0.0100    0.0100    0.0100    0.0100    0.0100    0.0100
    0.0100    0.0100
   </PP_RAB>
 </PP_MESH>
  <PP_LOCAL type="real"  size=" 938" columns="4">
   -2.4717264446E+01   -2.4835331911E+01   -2.5221847354E+01   -2.5654816262E+01
   -2.5998599764E+01   -2.6206427122E+01   -2.6291085660E+01   -2.6287382571E+01
   -2.6229973037E+01   -2.6144908020E+01   -2.6048730709E+01   -2.5950540761E+01
   -2.5854547934E+01   -2.5762129007E+01   -2.5673202335E+01   -2.5587045134E+01
   -2.5502737121E+01   -2.5419380240E+01   -2.5336194269E+01   -2.5252547972E+01
   -2.5167958977E+01   -2.5082079864E+01   -2.4994679204E+01   -2.4905621695E+01
   -2.4814849256E+01   -2.4722363802E+01   -2.4628211992E+01   -2.4532471972E+01
   -2.4435242113E+01   -2.4336631678E+01   -2.4236753299E+01   -2.4135717175E+01
   -2.4033626814E+01   -2.3930576148E+01   -2.3826647818E+01   -2.3721912426E+01
   -2.3616428538E+01   -2.3510243256E+01   -2.3403393163E+01   -2.3295905513E+01
   -2.3187799525E+01   -2.3079087693E+01   -2.2969777040E+01   -2.2859870274E+01
   -2.2749366813E+01   -2.2638263668E+01   -2.2526556190E+01   -2.2414238671E+01
   -2.2301304840E+01   -2.2187748240E+01   -2.2073562519E+01   -2.1958741646E+01
   -2.1843280077E+01   -2.1727172864E+01   -2.1610415742E+01   -2.1493005193E+01
   -2.1374938493E+01   -2.1256213757E+01   -2.1136829981E+01   -2.1016787090E+01
   -2.0896085984E+01   -2.0774728604E+01   -2.0652717990E+01   -2.0530058355E+01
   -2.0406755168E+01   -2.0282815229E+01   -2.0158246762E+01   -2.0033059499E+01
   -1.9907264762E+01   -1.9780875548E+01   -1.9653906606E+01   -1.9526374499E+01
   -1.9398297666E+01   -1.9269696469E+01   -1.9140593223E+01   -1.9011012218E+01
   -1.8880979725E+01   -1.8750523985E+01   -1.8619675184E+01   -1.8488465416E+01
   -1.8356928626E+01   -1.8225100546E+01   -1.8093018612E+01   -1.7960721876E+01
   -1.7828250900E+01   -1.7695647651E+01   -1.7562955376E+01   -1.7430218484E+01
   -1.7297482411E+01   -1.7164793489E+01   -1.7032198809E+01   -1.6899746086E+01
   -1.6767483518E+01   -1.6635459652E+01   -1.6503723248E+01   -1.6372323144E+01
   -1.6241308128E+01   -1.6110726810E+01   -1.5980627499E+01   -1.5851058084E+01
   -1.5722065920E+01   -1.5593697716E+01   -1.5465999434E+01   -1.5339016186E+01
   -1.5212792141E+01   -1.5087370430E+01   -1.4962793066E+01   -1.4839100862E+01
   -1.4716333353E+01   -1.4594528727E+01   -1.4473723756E+01   -1.4353953734E+01
   -1.4235252419E+01   -1.4117651977E+01   -1.4001182933E+01   -1.3885874118E+01
   -1.3771752632E+01   -1.3658843796E+01   -1.3547171117E+01   -1.3436756249E+01
   -1.3327618963E+01   -1.3219777113E+01   -1.3113246606E+01   -1.3008041375E+01
   -1.2904173354E+01   -1.2801652451E+01   -1.2700486524E+01   -1.2600681361E+01
   -1.2502240654E+01   -1.2405165979E+01   -1.2309456779E+01   -1.2215110335E+01
   -1.2122121753E+01   -1.2030483939E+01   -1.1940187580E+01   -1.1851221121E+01
   -1.1763570743E+01   -1.1677220349E+01   -1.1592151511E+01   -1.1508343550E+01
   -1.1425773315E+01   -1.1344415189E+01   -1.1264242264E+01   -1.1185227301E+01
   -1.1107343889E+01   -1.1030566448E+01   -1.0954870017E+01   -1.0880230360E+01
   -1.0806623927E+01   -1.0734027857E+01   -1.0662419964E+01   -1.0591778732E+01
   -1.0522083302E+01   -1.0453313462E+01   -1.0385449636E+01   -1.0318472868E+01
   -1.0252364811E+01   -1.0187107711E+01   -1.0122684387E+01   -1.0059078217E+01
   -9.9962731140E+00   -9.9342535120E+00   -9.8730043386E+00   -9.8125109951E+00
   -9.7527593321E+00   -9.6937356249E+00   -9.6354265481E+00   -9.5778191499E+00
   -9.5209008247E+00   -9.4646592873E+00   -9.4090825445E+00   -9.3541588690E+00
   -9.2998767754E+00   -9.2462249851E+00   -9.1931924126E+00   -9.1407681224E+00
   -9.0889412873E+00   -9.0377012204E+00   -8.9870373631E+00   -8.9369393712E+00
   -8.8873972466E+00   -8.8384013336E+00   -8.7899423036E+00   -8.7420111245E+00
   -8.6945989637E+00   -8.6476971317E+00   -8.6012971410E+00   -8.5553907270E+00
   -8.5099698199E+00   -8.4650265592E+00   -8.4205532734E+00   -8.3765424554E+00
   -8.3329867647E+00   -8.2898790346E+00   -8.2472122707E+00   -8.2049796384E+00
   -8.1631744550E+00   -8.1217901891E+00   -8.0808204570E+00   -8.0402590172E+00
   -8.0000997668E+00   -7.9603367368E+00   -7.9209640882E+00   -7.8819761086E+00
   -7.8433672081E+00   -7.8051319152E+00   -7.7672648741E+00   -7.7297608403E+00
   -7.6926146777E+00   -7.6558213552E+00   -7.6193759430E+00   -7.5832736104E+00
   -7.5475096217E+00   -7.5120793341E+00   -7.4769781943E+00   -7.4422017359E+00
   -7.4077455767E+00   -7.3736054164E+00   -7.3397770335E+00   -7.3062562832E+00
   -7.2730390954E+00   -7.2401214717E+00   -7.2074994841E+00   -7.1751692722E+00
   -7.1431270417E+00   -7.1113690623E+00   -7.0798916658E+00   -7.0486912446E+00
   -7.0177642498E+00   -6.9871071898E+00   -6.9567166288E+00   -6.9265891852E+00
   -6.8967215302E+00   -6.8671103869E+00   -6.8377525288E+00   -6.8086447785E+00
   -6.7797840071E+00   -6.7511671326E+00   -6.7227911195E+00   -6.6946529773E+00
   -6.6667497602E+00   -6.6390785660E+00   -6.6116365354E+00   -6.5844208513E+00
   -6.5574287382E+00   -6.5306574614E+00   -6.5041043266E+00   -6.4777666791E+00
   -6.4516419038E+00   -6.4257274239E+00   -6.4000207011E+00   -6.3745192348E+00
   -6.3492205618E+00   -6.3241222558E+00   -6.2992219270E+00   -6.2745172217E+00
   -6.2500058218E+00   -6.2256854448E+00   -6.2015538428E+00   -6.1776088024E+00
   -6.1538481443E+00   -6.1302697230E+00   -6.1068714262E+00   -6.0836511741E+00
   -6.0606069199E+00   -6.0377366495E+00   -6.0150383810E+00   -5.9925101651E+00
   -5.9701500841E+00   -5.9479562532E+00   -5.9259268193E+00   -5.9040599592E+00
   -5.8823538790E+00   -5.8608068126E+00   -5.8394170206E+00   -5.8181827900E+00
   -5.7971024301E+00   -5.7761742748E+00   -5.7553966815E+00   -5.7347680313E+00
   -5.7142867282E+00   -5.6939511986E+00   -5.6737598916E+00   -5.6537112785E+00
   -5.6338038522E+00   -5.6140361266E+00   -5.5944066364E+00   -5.5749139365E+00
   -5.5555566021E+00   -5.5363332280E+00   -5.5172424284E+00   -5.4982828367E+00
   -5.4794531047E+00   -5.4607519029E+00   -5.4421779198E+00   -5.4237298616E+00
   -5.4054064521E+00   -5.3872064322E+00   -5.3691285598E+00   -5.3511716092E+00
   -5.3333343713E+00   -5.3156156530E+00   -5.2980142769E+00   -5.2805290812E+00
   -5.2631589193E+00   -5.2459026599E+00   -5.2287591862E+00   -5.2117273962E+00
   -5.1948062019E+00   -5.1779945296E+00   -5.1612913195E+00   -5.1446955253E+00
   -5.1282061141E+00   -5.1118220664E+00   -5.0955423754E+00   -5.0793660473E+00
   -5.0632921008E+00   -5.0473195670E+00   -5.0314474892E+00   -5.0156749226E+00
   -5.0000009344E+00   -4.9844246032E+00   -4.9689450193E+00   -4.9535612839E+00
   -4.9382725097E+00   -4.9230778201E+00   -4.9079763493E+00   -4.8929672421E+00
   -4.8780496536E+00   -4.8632227494E+00   -4.8484857051E+00   -4.8338377063E+00
   -4.8192779482E+00   -4.8048056360E+00   -4.7904199843E+00   -4.7761202169E+00
   -4.7619055670E+00   -4.7477752770E+00   -4.7337285980E+00   -4.7197647903E+00
   -4.7058831224E+00   -4.6920828719E+00   -4.6783633245E+00   -4.6647237745E+00
   -4.6511635240E+00   -4.6376818836E+00   -4.6242781718E+00   -4.6109517147E+00
   -4.5977018464E+00   -4.5845279085E+00   -4.5714292502E+00   -4.5584052282E+00
   -4.5454552062E+00   -4.5325785554E+00   -4.5197746541E+00   -4.5070428874E+00
   -4.4943826475E+00   -4.4817933334E+00   -4.4692743506E+00   -4.4568251114E+00
   -4.4444450347E+00   -4.4321335457E+00   -4.4198900760E+00   -4.4077140635E+00
   -4.3956049522E+00   -4.3835621923E+00   -4.3715852398E+00   -4.3596735568E+00
   -4.3478266114E+00   -4.3360438770E+00   -4.3243248332E+00   -4.3126689650E+00
   -4.3010757627E+00   -4.2895447225E+00   -4.2780753456E+00   -4.2666671389E+00
   -4.2553196142E+00   -4.2440322887E+00   -4.2328046845E+00   -4.2216363291E+00
   -4.2105267545E+00   -4.1994754981E+00   -4.1884821017E+00   -4.1775461122E+00
   -4.1666670811E+00   -4.1558445645E+00   -4.1450781233E+00   -4.1343673228E+00
   -4.1237117326E+00   -4.1131109272E+00   -4.1025644849E+00   -4.0920719888E+00
   -4.0816330259E+00   -4.0712471877E+00   -4.0609140696E+00   -4.0506332712E+00
   -4.0404043962E+00   -4.0302270521E+00   -4.0201008506E+00   -4.0100254072E+00
   -4.0000003411E+00   -3.9900252755E+00   -3.9800998372E+00   -3.9702236568E+00
   -3.9603963685E+00   -3.9506176102E+00   -3.9408870232E+00   -3.9312042526E+00
   -3.9215689466E+00   -3.9119807571E+00   -3.9024393395E+00   -3.8929443523E+00
   -3.8834954573E+00   -3.8740923199E+00   -3.8647346083E+00   -3.8554219943E+00
   -3.8461541527E+00   -3.8369307612E+00   -3.8277515009E+00   -3.8186160558E+00