<UPF version="2.0.1">
  <PP_INFO>

 This pseudopotential file has been produced using the code
 ONCVPSP  (Optimized Norm-Conservinng Vanderbilt PSeudopotential)
 fully-relativistic version 3.3.1 12/12/2017 by D. R. Hamann
 The code is available through a link at URL www.mat-simresearch.com.
 Documentation with the package provides a full discription of the
 input data below.


 While it is not required under the terms of the GNU GPL, it is
 suggested that you cite D. R. Hamann, Phys. Rev. B 88, 085117 (2013)
 in any publication using these pseudopotentials.

    <PP_INPUTFILE>
# ATOM AND REFERENCE CONFIGURATION
# atsym  z   nc   nv     iexc    psfile
  He  2.00    0    1 -116133      upf
#
#   n    l    f        energy (Ha)
    1    0    2.00
#
# PSEUDOPOTENTIAL AND OPTIMIZATION
# lmax
    0
#
#   l,   rc,     ep,   ncon, nbas, qcut
    0   1.99006  -0.56958    5    8   7.17231
#
# LOCAL POTENTIAL
# lloc, lpopt,  rc(5),   dvloc0
    4    5   0.89489      0.00000
#
# VANDERBILT-KLEINMAN-BYLANDER PROJECTORs
# l, nproj, debl
    0    2   1.34022
#
# MODEL CORE CHARGE
# icmod, fcfact, rcfact
    0   0.00000   0.00000
#
# LOG DERIVATIVE ANALYSIS
# epsh1, epsh2, depsh
   -5.00    3.00    0.02
#
# OUTPUT GRID
# rlmax, drl
    6.00    0.01
#
# TEST CONFIGURATIONS
# ncnf
    0
# nvcnf
#   n    l    f
    </PP_INPUTFILE>
  </PP_INFO>
  <!--                               -->
  <!-- END OF HUMAN READABLE SECTION -->
  <!--                               -->
    <PP_HEADER
       generated="Generated using ONCVPSP code by D. R. Hamann"
       author="anonymous"
       date="210904"
       comment=""
       element="He"
       pseudo_type="NC"
       relativistic="full"
       is_ultrasoft="F"
       is_paw="F"
       is_coulomb="F"
       has_so="T"
       has_wfc="F"
       has_gipaw="F"
       core_correction="F"
       functional="PBESOL"
       z_valence="    2.00"
       total_psenergy="  -5.51620991586E+00"
       rho_cutoff="   7.31000000000E+00"
       l_max="0"
       l_local="-1"
       mesh_size="   732"
       number_of_wfc="1"
       number_of_proj="2"/>
 <PP_MESH>
   <PP_R type="real"  size=" 732" columns="8">
    0.0000    0.0100    0.0200    0.0300    0.0400    0.0500    0.0600    0.0700
    0.0800    0.0900    0.1000    0.1100    0.1200    0.1300    0.1400    0.1500
    0.1600    0.1700    0.1800    0.1900    0.2000    0.2100    0.2200    0.2300
    0.2400    0.2500    0.2600    0.2700    0.2800    0.2900    0.3000    0.3100
    0.3200    0.3300    0.3400    0.3500    0.3600    0.3700    0.3800    0.3900
    0.4000    0.4100    0.4200    0.4300    0.4400    0.4500    0.4600    0.4700
    0.4800    0.4900    0.5000    0.5100    0.5200    0.5300    0.5400    0.5500
    0.5600    0.5700    0.5800    0.5900    0.6000    0.6100    0.6200    0.6300
    0.6400    0.6500    0.6600    0.6700    0.6800    0.6900    0.7000    0.7100
    0.7200    0.7300    0.7400    0.7500    0.7600    0.7700    0.7800    0.7900
    0.8000    0.8100    0.8200    0.8300    0.8400    0.8500    0.8600    0.8700
    0.8800    0.8900    0.9000    0.9100    0.9200    0.9300    0.9400    0.9500
    0.9600    0.9700    0.9800    0.9900    1.0000    1.0100    1.0200    1.0300
    1.0400    1.0500    1.0600    1.0700    1.0800    1.0900    1.1000    1.1100
    1.1200    1.1300    1.1400    1.1500    1.1600    1.1700    1.1800    1.1900
    1.2000    1.2100    1.2200    1.2300    1.2400    1.2500    1.2600    1.2700
    1.2800    1.2900    1.3000    1.3100    1.3200    1.3300    1.3400    1.3500
    1.3600    1.3700    1.3800    1.3900    1.4000    1.4100    1.4200    1.4300
    1.4400    1.4500    1.4600    1.4700    1.4800    1.4900    1.5000    1.5100
    1.5200    1.5300    1.5400    1.5500    1.5600    1.5700    1.5800    1.5900
    1.6000    1.6100    1.6200    1.6300    1.6400    1.6500    1.6600    1.6700
    1.6800    1.6900    1.7000    1.7100    1.7200    1.7300    1.7400    1.7500
    1.7600    1.7700    1.7800    1.7900    1.8000    1.8100    1.8200    1.8300
    1.8400    1.8500    1.8600    1.8700    1.8800    1.8900    1.9000    1.9100
    1.9200    1.9300    1.9400    1.9500    1.9600    1.9700    1.9800    1.9900
    2.0000    2.0100    2.0200    2.0300    2.0400    2.0500    2.0600    2.0700
    2.0800    2.0900    2.1000    2.1100    2.1200    2.1300    2.1400    2.1500
    2.1600    2.1700    2.1800    2.1900    2.2000    2.2100    2.2200    2.2300
    2.2400    2.2500    2.2600    2.2700    2.2800    2.2900    2.3000    2.3100
    2.3200    2.3300    2.3400    2.3500    2.3600    2.3700    2.3800    2.3900
    2.4000    2.4100    2.4200    2.4300    2.4400    2.4500    2.4600    2.4700
    2.4800    2.4900    2.5000    2.5100    2.5200    2.5300    2.5400    2.5500
    2.5600    2.5700    2.5800    2.5900    2.6000    2.6100    2.6200    2.6300
    2.6400    2.6500    2.6600    2.6700    2.6800    2.6900    2.7000    2.7100
    2.7200    2.7300    2.7400    2.7500    2.7600    2.7700    2.7800    2.7900
    2.8000    2.8100    2.8200    2.8300    2.8400    2.8500    2.8600    2.8700
    2.8800    2.8900    2.9000    2.9100    2.9200    2.9300    2.9400    2.9500
    2.9600    2.9700    2.9800    2.9900    3.0000    3.0100    3.0200    3.0300
    3.0400    3.0500    3.0600    3.0700    3.0800    3.0900    3.1000    3.1100
    3.1200    3.1300    3.1400    3.1500    3.1600    3.1700    3.1800    3.1900
    3.2000    3.2100    3.2200    3.2300    3.2400    3.2500    3.2600    3.2700
    3.2800    3.2900    3.3000    3.3100    3.3200    3.3300    3.3400    3.3500
    3.3600    3.3700    3.3800    3.3900    3.4000    3.4100    3.4200    3.4300
    3.4400    3.4500    3.4600    3.4700    3.4800    3.4900    3.5000    3.5100
    3.5200    3.5300    3.5400    3.5500    3.5600    3.5700    3.5800    3.5900
    3.6000    3.6100    3.6200    3.6300    3.6400    3.6500    3.6600    3.6700
    3.6800    3.6900    3.7000    3.7100    3.7200    3.7300    3.7400    3.7500
    3.7600    3.7700    3.7800    3.7900    3.8000    3.8100    3.8200    3.8300
    3.8400    3.8500    3.8600    3.8700    3.8800    3.8900    3.9000    3.9100
    3.9200    3.9300    3.9400    3.9500    3.9600    3.9700    3.9800    3.9900
    4.0000    4.0100    4.0200    4.0300    4.0400    4.0500    4.0600    4.0700
    4.0800    4.0900    4.1000    4.1100    4.1200    4.1300    4.1400    4.1500
    4.1600    4.1700    4.1800    4.1900    4.2000    4.2100    4.2200    4.2300
    4.2400    4.2500    4.2600    4.2700    4.2800    4.2900    4.3000    4.3100
    4.3200    4.3300    4.3400    4.3500    4.3600    4.3700    4.3800    4.3900
    4.4000    4.4100    4.4200    4.4300    4.4400    4.4500    4.4600    4.4700
    4.4800    4.4900    4.5000    4.5100    4.5200    4.5300    4.5400    4.5500
    4.5600    4.5700    4.5800    4.5900    4.6000    4.6100    4.6200    4.6300
    4.6400    4.6500    4.6600    4.6700    4.6800    4.6900    4.7000    4.7100
    4.7200    4.7300    4.7400    4.7500    4.7600    4.7700    4.7800    4.7900
    4.8000    4.8100    4.8200    4.8300    4.8400    4.8500    4.8600    4.8700
    4.8800    4.8900    4.9000    4.9100    4.9200    4.9300    4.9400    4.9500
    4.9600    4.9700    4.9800    4.9900    5.0000    5.0100    5.0200    5.0300
    5.0400    5.0500    5.0600    5.0700    5.0800    5.0900    5.1000    5.1100
    5.1200    5.1300    5.1400    5.1500    5.1600    5.1700    5.1800    5.1900
    5.2000    5.2100    5.2200    5.2300    5.2400    5.2500    5.2600    5.2700
    5.2800    5.2900    5.3000    5.3100    5.3200    5.3300    5.3400    5.3500
    5.3600    5.3700    5.3800    5.3900    5.4000    5.4100    5.4200    5.4300
    5.4400    5.4500    5.4600    5.4700    5.4800    5.4900    5.5000    5.5100
    5.5200    5.5300    5.5400    5.5500    5.5600    5.5700    5.5800    5.5900
    5.6000    5.6100    5.6200    5.6300    5.6400    5.6500    5.6600    5.6700
    5.6800    5.6900    5.7000    5.7100    5.7200    5.7300    5.7400    5.7500
    5.7600    5.7700    5.7800    5.7900    5.8000    5.8100    5.8200    5.8300
    5.8400    5.8500    5.8600    5.8700    5.8800    5.8900    5.9000    5.9100
    5.9200    5.9300    5.9400    5.9500    5.9600    5.9700    5.9800    5.9900
    6.0000    6.0100    6.0200    6.0300    6.0400    6.0500    6.0600    6.0700
    6.0800    6.0900    6.1000    6.1100    6.1200    6.1300    6.1400    6.1500
    6.1600    6.1700    6.1800    6.1900    6.2000    6.2100    6.2200    6.2300
    6.2400    6.2500    6.2600    6.2700    6.2800    6.2900    6.3000    6.3100
    6.3200    6.3300    6.3400    6.3500    6.3600    6.3700    6.3800    6.3900
    6.4000    6.4100    6.4200    6.4300    6.4400    6.4500    6.4600    6.4700
    6.4800    6.4900    6.5000    6.5100    6.5200    6.5300    6.5400    6.5500
    6.5600    6.5700    6.5800    6.5900    6.6000    6.6100    6.6200    6.6300
    6.6400    6.6500    6.6600    6.6700    6.6800    6.6900    6.7000    6.7100
    6.7200    6.7300    6.7400    6.7500    6.7600    6.7700    6.7800    6.7900
    6.8000    6.8100    6.8200    6.8300    6.8400    6.8500    6.8600    6.8700
    6.8800    6.8900    6.9000    6.9100    6.9200    6.9300    6.9400    6.9500
    6.9600    6.9700    6.9800    6.9900    7.0000    7.0100    7.0200    7.0300
    7.0400    7.0500    7.0600    7.0700    7.0800    7.0900    7.1000    7.1100
    7.1200    7.1300    7.1400    7.1500    7.1600    7.1700    7.1800    7.1900
    7.2000    7.2100    7.2200    7.2300    7.2400    7.2500    7.2600    7.2700
    7.2800    7.2900    7.3000    7.3100
   </PP_R>
   <PP_RAB type="real"  size=" 732" columns="8">
    0.0100    0.0100    0.0100    0.0100    0.0100    0.0100    0.0100    0.0100
    0.0100    0.0100    0.0100    0.0100    0.0100    0.0100    0.0100    0.0100
    0.0100    0.0100    0.0100    0.0100    0.0100    0.0100    0.0100    0.0100
    0.0100    0.0100    0.0100    0.0100    0.0100    0.0100    0.0100    0.0100
    0.0100    0.0100    0.0100    0.0100    0.0100    0.0100    0.0100    0.0100
    0.0100    0.0100    0.0100    0.0100    0.0100    0.0100    0.0100    0.0100
    0.0100    0.0100    0.0100    0.0100    0.0100    0.0100    0.0100    0.0100
    0.0100    0.0100    0.0100    0.0100    0.0100    0.0100    0.0100    0.0100
    0.0100    0.0100    0.0100    0.0100    0.0100    0.0100    0.0100    0.0100
    0.0100    0.0100    0.0100    0.0100    0.0100    0.0100    0.0100    0.0100
    0.0100    0.0100    0.0100    0.0100    0.0100    0.0100    0.0100    0.0100
    0.0100    0.0100    0.0100    0.0100    0.0100    0.0100    0.0100    0.0100
    0.0100    0.0100    0.0100    0.0100    0.0100    0.0100    0.0100    0.0100
    0.0100    0.0100    0.0100    0.0100    0.0100    0.0100    0.0100    0.0100
    0.0100    0.0100    0.0100    0.0100    0.0100    0.0100    0.0100    0.0100
    0.0100    0.0100    0.0100    0.0100    0.0100    0.0100    0.0100    0.0100
    0.0100    0.0100    0.0100    0.0100    0.0100    0.0100    0.0100    0.0100
    0.0100    0.0100    0.0100    0.0100    0.0100    0.0100    0.0100    0.0100
    0.0100    0.0100    0.0100    0.0100    0.0100    0.0100    0.0100    0.0100
    0.0100    0.0100    0.0100    0.0100    0.0100    0.0100    0.0100    0.0100
    0.0100    0.0100    0.0100    0.0100    0.0100    0.0100    0.0100    0.0100
    0.0100    0.0100    0.0100    0.0100    0.0100    0.0100    0.0100    0.0100
    0.0100    0.0100    0.0100    0.0100    0.0100    0.0100    0.0100    0.0100
    0.0100    0.0100    0.0100    0.0100    0.0100    0.0100    0.0100    0.0100
    0.0100    0.0100    0.0100    0.0100    0.0100    0.0100    0.0100    0.0100
    0.0100    0.0100    0.0100    0.0100    0.0100    0.0100    0.0100    0.0100
    0.0100    0.0100    0.0100    0.0100    0.0100    0.0100    0.0100    0.0100
    0.0100    0.0100    0.0100    0.0100    0.0100    0.0100    0.0100    0.0100
    0.0100    0.0100    0.0100    0.0100    0.0100    0.0100    0.0100    0.0100
    0.0100    0.0100    0.0100    0.0100    0.0100    0.0100    0.0100    0.0100
    0.0100    0.0100    0.0100    0.0100    0.0100    0.0100    0.0100    0.0100
    0.0100    0.0100    0.0100    0.0100    0.0100    0.0100    0.0100    0.0100
    0.0100    0.0100    0.0100    0.0100    0.0100    0.0100    0.0100    0.0100
    0.0100    0.0100    0.0100    0.0100    0.0100    0.0100    0.0100    0.0100
    0.0100    0.0100    0.0100    0.0100    0.0100    0.0100    0.0100    0.0100
    0.0100    0.0100    0.0100    0.0100    0.0100    0.0100    0.0100    0.0100
    0.0100    0.0100    0.0100    0.0100    0.0100    0.0100    0.0100    0.0100
    0.0100    0.0100    0.0100    0.0100    0.0100    0.0100    0.0100    0.0100
    0.0100    0.0100    0.0100    0.0100    0.0100    0.0100    0.0100    0.0100
    0.0100    0.0100    0.0100    0.0100    0.0100    0.0100    0.0100    0.0100
    0.0100    0.0100    0.0100    0.0100    0.0100    0.0100    0.0100    0.0100
    0.0100    0.0100    0.0100    0.0100    0.0100    0.0100    0.0100    0.0100
    0.0100    0.0100    0.0100    0.0100    0.0100    0.0100    0.0100    0.0100
    0.0100    0.0100    0.0100    0.0100    0.0100    0.0100    0.0100    0.0100
    0.0100    0.0100    0.0100    0.0100    0.0100    0.0100    0.0100    0.0100
    0.0100    0.0100    0.0100    0.0100    0.0100    0.0100    0.0100    0.0100
    0.0100    0.0100    0.0100    0.0100    0.0100    0.0100    0.0100    0.0100
    0.0100    0.0100    0.0100    0.0100    0.0100    0.0100    0.0100    0.0100
    0.0100    0.0100    0.0100    0.0100    0.0100    0.0100    0.0100    0.0100
    0.0100    0.0100    0.0100    0.0100    0.0100    0.0100    0.0100    0.0100
    0.0100    0.0100    0.0100    0.0100    0.0100    0.0100    0.0100    0.0100
    0.0100    0.0100    0.0100    0.0100    0.0100    0.0100    0.0100    0.0100
    0.0100    0.0100    0.0100    0.0100    0.0100    0.0100    0.0100    0.0100
    0.0100    0.0100    0.0100    0.0100    0.0100    0.0100    0.0100    0.0100
    0.0100    0.0100    0.0100    0.0100    0.0100    0.0100    0.0100    0.0100
    0.0100    0.0100    0.0100    0.0100    0.0100    0.0100    0.0100    0.0100
    0.0100    0.0100    0.0100    0.0100    0.0100    0.0100    0.0100    0.0100
    0.0100    0.0100    0.0100    0.0100    0.0100    0.0100    0.0100    0.0100
    0.0100    0.0100    0.0100    0.0100    0.0100    0.0100    0.0100    0.0100
    0.0100    0.0100    0.0100    0.0100    0.0100    0.0100    0.0100    0.0100
    0.0100    0.0100    0.0100    0.0100    0.0100    0.0100    0.0100    0.0100
    0.0100    0.0100    0.0100    0.0100    0.0100    0.0100    0.0100    0.0100
    0.0100    0.0100    0.0100    0.0100    0.0100    0.0100    0.0100    0.0100
    0.0100    0.0100    0.0100    0.0100    0.0100    0.0100    0.0100    0.0100
    0.0100    0.0100    0.0100    0.0100    0.0100    0.0100    0.0100    0.0100
    0.0100    0.0100    0.0100    0.0100    0.0100    0.0100    0.0100    0.0100
    0.0100    0.0100    0.0100    0.0100    0.0100    0.0100    0.0100    0.0100
    0.0100    0.0100    0.0100    0.0100    0.0100    0.0100    0.0100    0.0100
    0.0100    0.0100    0.0100    0.0100    0.0100    0.0100    0.0100    0.0100
    0.0100    0.0100    0.0100    0.0100    0.0100    0.0100    0.0100    0.0100
    0.0100    0.0100    0.0100    0.0100    0.0100    0.0100    0.0100    0.0100
    0.0100    0.0100    0.0100    0.0100    0.0100    0.0100    0.0100    0.0100
    0.0100    0.0100    0.0100    0.0100    0.0100    0.0100    0.0100    0.0100
    0.0100    0.0100    0.0100    0.0100    0.0100    0.0100    0.0100    0.0100
    0.0100    0.0100    0.0100    0.0100    0.0100    0.0100    0.0100    0.0100
    0.0100    0.0100    0.0100    0.0100    0.0100    0.0100    0.0100    0.0100
    0.0100    0.0100    0.0100    0.0100    0.0100    0.0100    0.0100    0.0100
    0.0100    0.0100    0.0100    0.0100    0.0100    0.0100    0.0100    0.0100
    0.0100    0.0100    0.0100    0.0100    0.0100    0.0100    0.0100    0.0100
    0.0100    0.0100    0.0100    0.0100    0.0100    0.0100    0.0100    0.0100
    0.0100    0.0100    0.0100    0.0100    0.0100    0.0100    0.0100    0.0100
    0.0100    0.0100    0.0100    0.0100    0.0100    0.0100    0.0100    0.0100
    0.0100    0.0100    0.0100    0.0100    0.0100    0.0100    0.0100    0.0100
    0.0100    0.0100    0.0100    0.0100    0.0100    0.0100    0.0100    0.0100
    0.0100    0.0100    0.0100    0.0100    0.0100    0.0100    0.0100    0.0100
    0.0100    0.0100    0.0100    0.0100    0.0100    0.0100    0.0100    0.0100
    0.0100    0.0100    0.0100    0.0100    0.0100    0.0100    0.0100    0.0100
    0.0100    0.0100    0.0100    0.0100    0.0100    0.0100    0.0100    0.0100
    0.0100    0.0100    0.0100    0.0100    0.0100    0.0100    0.0100    0.0100
    0.0100    0.0100    0.0100    0.0100    0.0100    0.0100    0.0100    0.0100
    0.0100    0.0100    0.0100    0.0100    0.0100    0.0100    0.0100    0.0100
    0.0100    0.0100    0.0100    0.0100
   </PP_RAB>
 </PP_MESH>
  <PP_LOCAL type="real"  size=" 732" columns="4">
   -9.6740380947E+00   -9.6727310281E+00   -9.6688110756E+00   -9.6622826533E+00
   -9.6531530464E+00   -9.6414324193E+00   -9.6271338037E+00   -9.6102730734E+00
   -9.5908689133E+00   -9.5689427824E+00   -9.5445188718E+00   -9.5176240587E+00
   -9.4882878545E+00   -9.4565423498E+00   -9.4224221550E+00   -9.3859643370E+00
   -9.3472083527E+00   -9.3061959797E+00   -9.2629712438E+00   -9.2175803445E+00
   -9.1700715777E+00   -9.1204952570E+00   -9.0689036332E+00   -9.0153508125E+00
   -8.9598926730E+00   -8.9025867807E+00   -8.8434923050E+00   -8.7826699325E+00
   -8.7201817814E+00   -8.6560913145E+00   -8.5904632532E+00   -8.5233634900E+00
   -8.4548590014E+00   -8.3850177611E+00   -8.3139086523E+00   -8.2416013807E+00
   -8.1681663868E+00   -8.0936747590E+00   -8.0181981455E+00   -7.9418086668E+00
   -7.8645788281E+00   -7.7865814311E+00   -7.7078894858E+00   -7.6285761217E+00
   -7.5487144990E+00   -7.4683777193E+00   -7.3876387352E+00   -7.3065702605E+00
   -7.2252446783E+00   -7.1437339499E+00   -7.0621095216E+00   -6.9804422316E+00
   -6.8988022157E+00   -6.8172588118E+00   -6.7358804639E+00   -6.6547346245E+00
   -6.5738876561E+00   -6.4934047319E+00   -6.4133497345E+00   -6.3337851543E+00
   -6.2547719855E+00   -6.1763696219E+00   -6.0986357506E+00   -6.0216262445E+00
   -5.9453950536E+00   -5.8699940949E+00   -5.7954731407E+00   -5.7218797057E+00
   -5.6492589329E+00   -5.5776534779E+00   -5.5071033920E+00   -5.4376460047E+00
   -5.3693158039E+00   -5.3021443162E+00   -5.2361599853E+00   -5.1713880502E+00
   -5.1078504221E+00   -5.0455655608E+00   -4.9845483505E+00   -4.9248099747E+00
   -4.8663577915E+00   -4.8091952071E+00   -4.7533215507E+00   -4.6987319478E+00
   -4.6454171941E+00   -4.5933636284E+00   -4.5425530062E+00   -4.4929623718E+00
   -4.4445639297E+00   -4.3973249573E+00   -4.3512075106E+00   -4.3061701242E+00
   -4.2621713256E+00   -4.2191713440E+00   -4.1771318655E+00   -4.1360160278E+00
   -4.0957883714E+00   -4.0564147959E+00   -4.0178625210E+00   -3.9801000508E+00
   -3.9430971409E+00   -3.9068247672E+00   -3.8712550971E+00   -3.8363614618E+00
   -3.8021183288E+00   -3.7685012762E+00   -3.7354869661E+00   -3.7030531186E+00
   -3.6711784857E+00   -3.6398428241E+00   -3.6090268689E+00   -3.5787123049E+00
   -3.5488817394E+00   -3.5195186724E+00   -3.4906074683E+00   -3.4621333253E+00
   -3.4340822454E+00   -3.4064410040E+00   -3.3791971195E+00   -3.3523388228E+00
   -3.3258550265E+00   -3.2997352939E+00   -3.2739698101E+00   -3.2485493519E+00
   -3.2234652590E+00   -3.1987094050E+00   -3.1742741709E+00   -3.1501524168E+00
   -3.1263374569E+00   -3.1028230337E+00   -3.0796032934E+00   -3.0566727627E+00
   -3.0340263255E+00   -3.0116592009E+00   -2.9895669220E+00   -2.9677453147E+00
   -2.9461904778E+00   -2.9248987632E+00   -2.9038667566E+00   -2.8830912586E+00
   -2.8625692660E+00   -2.8422979538E+00   -2.8222746565E+00   -2.8024968508E+00
   -2.7829621372E+00   -2.7636682228E+00   -2.7446129037E+00   -2.7257940477E+00
   -2.7072095773E+00   -2.6888574533E+00   -2.6707356584E+00   -2.6528421811E+00
   -2.6351750014E+00   -2.6177320756E+00   -2.6005113234E+00   -2.5835106150E+00
   -2.5667277603E+00   -2.5501604979E+00   -2.5338064875E+00   -2.5176633017E+00
   -2.5017284213E+00   -2.4859992307E+00   -2.4704730161E+00   -2.4551469650E+00
   -2.4400181676E+00   -2.4250836202E+00   -2.4103402294E+00   -2.3957848193E+00
   -2.3814141394E+00   -2.3672248736E+00   -2.3532136514E+00   -2.3393770592E+00
   -2.3257116533E+00   -2.3122139725E+00   -2.2988805527E+00   -2.2857079396E+00
   -2.2726927035E+00   -2.2598314521E+00   -2.2471208440E+00   -2.2345576006E+00
   -2.2221385178E+00   -2.2098604764E+00   -2.1977204509E+00   -2.1857155175E+00
   -2.1738428602E+00   -2.1620997761E+00   -2.1504836778E+00   -2.1389920957E+00
   -2.1276226777E+00   -2.1163731876E+00   -2.1052415026E+00   -2.0942256080E+00
   -2.0833235925E+00   -2.0725336403E+00   -2.0618540236E+00   -2.0512830938E+00
   -2.0408192719E+00   -2.0304610375E+00   -2.0202069183E+00   -2.0100554797E+00
   -2.0000053089E+00   -1.9900550022E+00   -1.9802031609E+00   -1.9704483794E+00
   -1.9607892495E+00   -1.9512243723E+00   -1.9417523681E+00   -1.9323718778E+00
   -1.9230815777E+00   -1.9138801749E+00   -1.9047664029E+00   -1.8957390171E+00
   -1.8867967973E+00   -1.8779385442E+00   -1.8691630796E+00   -1.8604692470E+00
   -1.8518559131E+00   -1.8433219654E+00   -1.8348663115E+00   -1.8264878788E+00
   -1.8181856143E+00   -1.8099584840E+00   -1.8018054727E+00   -1.7937255832E+00
   -1.7857178363E+00   -1.7777812700E+00   -1.7699149394E+00   -1.7621179165E+00
   -1.7543892892E+00   -1.7467281616E+00   -1.7391336532E+00   -1.7316048988E+00
   -1.7241410483E+00   -1.7167412658E+00   -1.7094047302E+00   -1.7021306338E+00
   -1.6949181832E+00   -1.6877665978E+00   -1.6806751106E+00   -1.6736429671E+00
   -1.6666694256E+00   -1.6597537566E+00   -1.6528952426E+00   -1.6460931780E+00
   -1.6393468689E+00   -1.6326556324E+00   -1.6260187970E+00   -1.6194357018E+00
   -1.6129056970E+00   -1.6064281426E+00   -1.6000024095E+00   -1.5936278781E+00
   -1.5873039390E+00   -1.5810299923E+00   -1.5748054474E+00   -1.5686297231E+00
   -1.5625022474E+00   -1.5564224570E+00   -1.5503897974E+00   -1.5444037228E+00
   -1.5384636955E+00   -1.5325691864E+00   -1.5267196741E+00   -1.5209146454E+00
   -1.5151535948E+00   -1.5094360245E+00   -1.5037614440E+00   -1.4981293703E+00
   -1.4925393275E+00   -1.4869908470E+00   -1.4814834668E+00   -1.4760167321E+00
   -1.4705901944E+00   -1.4652034122E+00   -1.4598559499E+00   -1.4545473788E+00
   -1.4492772761E+00   -1.4440452250E+00   -1.4388508151E+00   -1.4336936415E+00
   -1.4285733053E+00   -1.4234894131E+00   -1.4184415774E+00   -1.4134294157E+00
   -1.4084525513E+00   -1.4035106126E+00   -1.3986032332E+00   -1.3937300520E+00
   -1.3888907125E+00   -1.3840848637E+00   -1.3793121588E+00   -1.3745722564E+00
   -1.3698648193E+00   -1.3651895151E+00   -1.3605460159E+00   -1.3559339983E+00
   -1.3513531433E+00   -1.3468031359E+00   -1.3422836656E+00   -1.3377944262E+00
   -1.3333351151E+00   -1.3289054342E+00   -1.3245050891E+00   -1.3201337893E+00
   -1.3157912482E+00   -1.3114771828E+00   -1.3071913141E+00   -1.3029333665E+00
   -1.2987030680E+00   -1.2945001501E+00   -1.2903243479E+00   -1.2861753998E+00
   -1.2820530476E+00   -1.2779570364E+00   -1.2738871144E+00   -1.2698430333E+00
   -1.2658245476E+00   -1.2618314152E+00   -1.2578633969E+00   -1.2539202564E+00
   -1.2500017605E+00   -1.2461076790E+00   -1.2422377843E+00   -1.2383918518E+00
   -1.2345696596E+00   -1.2307709885E+00   -1.2269956222E+00   -1.2232433467E+00
   -1.2195139510E+00   -1.2158072263E+00   -1.2121229665E+00   -1.2084609681E+00
   -1.2048210299E+00   -1.2012029532E+00   -1.1976065415E+00   -1.1940316008E+00
   -1.1904779395E+00   -1.1869453681E+00   -1.1834336994E+00   -1.1799427485E+00
   -1.1764723325E+00   -1.1730222708E+00   -1.1695923848E+00   -1.1661824980E+00
   -1.1627924361E+00   -1.1594220266E+00   -1.1560710992E+00   -1.1527394854E+00
   -1.1494270187E+00   -1.1461335346E+00   -1.1428588702E+00   -1.1396028649E+00
   -1.1363653594E+00   -1.1331461967E+00   -1.1299452213E+00   -1.1267622794E+00
   -1.1235972191E+00   -1.1204498902E+00   -1.1173201440E+00   -1.1142078336E+00
   -1.1111128137E+00   -1.1080349407E+00   -1.1049740724E+00   -1.1019300683E+00
   -1.0989027893E+00   -1.0958920982E+00   -1.0928978588E+00   -1.0899199366E+00
   -1.0869581988E+00   -1.0840125136E+00   -1.0810827509E+00   -1.0781687820E+00
   -1.0752704796E+00   -1.0723877175E+00   -1.0695203712E+00   -1.0666683173E+00
   -1.0638314338E+00   -1.0610096000E+00   -1.0582026964E+00   -1.0554106050E+00
   -1.0526332086E+00   -1.0498703917E+00   -1.0471220397E+00   -1.0443880393E+00
   -1.0416682784E+00   -1.0389626460E+00   -1.0362710324E+00   -1.0335933289E+00
   -1.0309294279E+00   -1.0282792229E+00   -1.0256426087E+00   -1.0230194809E+00
   -1.0204097363E+00   -1.0178132728E+00   -1.0152299893E+00   -1.0126597855E+00
   -1.0101025626E+00   -1.0075582223E+00   -1.0050266676E+00   -1.0025078022E+00
   -1.0000015312E+00   -9.9750776018E-01   -9.9502639592E-01   -9.9255734606E-01
   -9.9010051916E-01   -9.8765582467E-01   -9.8522317295E-01   -9.8280247523E-01
   -9.8039364362E-01   -9.7799659108E-01   -9.7561123141E-01   -9.7323747929E-01
   -9.7087525017E-01   -9.6852446037E-01   -9.6618502698E-01   -9.6385686793E-01
   -9.6153990189E-01   -9.5923404835E-01   -9.5693922755E-01   -9.5465536050E-01
   -9.5238236896E-01   -9.5012017544E-01   -9.4786870317E-01   -9.4562787611E-01
   -9.4339761895E-01   -9.4117785707E-01   -9.3896851657E-01   -9.3676952422E-01
   -9.3458080751E-01   -9.3240229456E-01   -9.3023391419E-01   -9.2807559587E-01
   -9.2592726974E-01   -9.2378886655E-01   -9.2166031772E-01   -9.1954155529E-01
   -9.1743251192E-01   -9.1533312089E-01   -9.1324331609E-01   -9.1116303201E-01
   -9.0909220373E-01   -9.0703076694E-01   -9.0497865789E-01   -9.0293581342E-01
   -9.0090217091E-01   -8.9887766835E-01   -8.9686224426E-01   -8.9485583769E-01
   -8.9285838827E-01   -8.9086983616E-01   -8.8889012203E-01   -8.8691918710E-01
   -8.8495697310E-01   -8.8300342228E-01   -8.8105847739E-01   -8.7912208168E-01
   -8.7719417893E-01   -8.7527471336E-01   -8.7336362973E-01   -8.7146087324E-01
   -8.6956638958E-01   -8.6768012493E-01   -8.6580202592E-01   -8.6393203962E-01
   -8.6207011360E-01   -8.6021619585E-01   -8.5837023482E-01   -8.5653217939E-01
   -8.5470197888E-01   -8.5287958306E-01   -8.5106494210E-01   -8.4925800661E-01
   -8.4745872762E-01   -8.4566705656E-01   -8.4388294529E-01   -8.4210634606E-01
   -8.4033721152E-01   -8.3857549473E-01   -8.3682114913E-01   -8.3507412856E-01
   -8.3333438724E-01   -8.3160187976E-01   -8.2987656110E-01   -8.2815838661E-01
   -8.2644731202E-01   -8.2474329339E-01   -8.2304628719E-01   -8.2135625020E-01
   -8.1967313959E-01   -8.1799691287E-01   -8.1632752789E-01   -8.1466494284E-01
   -8.1300911627E-01   -8.1136000704E-01   -8.0971757437E-01   -8.0808177778E-01
   -8.0645257715E-01   -8.0482993266E-01   -8.0321380481E-01   -8.0160415443E-01
   -8.0000094265E-01   -7.9840413092E-01   -7.9681368099E-01   -7.9522955491E-01
   -7.9365171505E-01   -7.9208012406E-01   -7.9051474490E-01   -7.8895554080E-01
   -7.8740247531E-01   -7.8585551223E-01   -7.8431461568E-01   -7.8277975004E-01
   -7.8125087996E-01   -7.7972797040E-01   -7.7821098656E-01   -7.7669989393E-01
   -7.7519465824E-01   -7.7369524552E-01   -7.7220162204E-01   -7.7071375434E-01
   -7.6923160922E-01   -7.6775515371E-01   -7.6628435513E-01   -7.6481918102E-01
   -7.6335959918E-01   -7.6190557766E-01   -7.6045708474E-01   -7.5901408896E-01
   -7.5757655907E-01   -7.5614446408E-01   -7.5471777324E-01   -7.5329645599E-01
   -7.5188048206E-01   -7.5046982135E-01   -7.4906444402E-01   -7.4766432044E-01
   -7.4626942121E-01   -7.4487971715E-01   -7.4349517927E-01   -7.4211577884E-01
   -7.4074148730E-01   -7.3937227633E-01   -7.3800811781E-01   -7.3664898381E-01
   -7.3529484665E-01   -7.3394567879E-01   -7.3260145296E-01   -7.3126214203E-01
   -7.2992771911E-01   -7.2859815748E-01   -7.2727343062E-01   -7.2595351223E-01
   -7.2463837615E-01   -7.2332799645E-01   -7.2202234737E-01   -7.2072140334E-01
   -7.1942513897E-01   -7.1813352906E-01   -7.1684654858E-01   -7.1556417270E-01
   -7.1428637674E-01   -7.1301313620E-01   -7.1174442679E-01   -7.1048022434E-01
   -7.0922050488E-01   -7.0796524462E-01   -7.0671441992E-01   -7.0546800731E-01
   -7.0422598348E-01   -7.0298832529E-01   -7.0175500978E-01   -7.0052601412E-01
   -6.9930131566E-01   -6.9808089189E-01   -6.9686472048E-01   -6.9565277925E-01
   -6.9444504615E-01   -6.9324149931E-01   -6.9204211700E-01   -6.9084687764E-01
   -6.8965575981E-01   -6.8846874222E-01   -6.8728580374E-01   -6.8610692338E-01
   -6.8493208028E-01   -6.8376125376E-01   -6.8259442324E-01   -6.8143156830E-01
   -6.8027266866E-01   -6.7911770417E-01   -6.7796665483E-01   -6.7681950075E-01
   -6.7567622221E-01   -6.7453679959E-01   -6.7340121342E-01   -6.7226944435E-01
   -6.7114147318E-01   -6.7001728082E-01   -6.6889684830E-01   -6.6778015681E-01
   -6.6666718763E-01   -6.6555792218E-01   -6.6445234202E-01   -6.6335042879E-01
   -6.6225216430E-01   -6.6115753044E-01   -6.6006650924E-01   -6.5897908285E-01
   -6.5789523353E-01   -6.5681494367E-01   -6.5573819574E-01   -6.5466497237E-01
   -6.5359525628E-01   -6.5252903029E-01   -6.5146627737E-01   -6.5040698056E-01
   -6.4935112304E-01   -6.4829868808E-01   -6.4724965907E-01   -6.4620401950E-01
   -6.4516175298E-01   -6.4412284319E-01   -6.4308727397E-01   -6.4205502922E-01
   -6.4102609295E-01   -6.4000044929E-01   -6.3897808245E-01   -6.3795897677E-01
   -6.3694311665E-01   -6.3593048663E-01   -6.3492107131E-01   -6.3391485542E-01
   -6.3291182377E-01   -6.3191196126E-01   -6.3091525291E-01   -6.2992168380E-01