<UPF version="2.0.1">
  <PP_INFO>

 This pseudopotential file has been produced using the code
 ONCVPSP  (Optimized Norm-Conservinng Vanderbilt PSeudopotential)
 scalar-relativistic version 3.3.1 12/12/2017 by D. R. Hamann
 The code is available through a link at URL www.mat-simresearch.com.
 Documentation with the package provides a full discription of the
 input data below.


 While it is not required under the terms of the GNU GPL, it is
 suggested that you cite D. R. Hamann, Phys. Rev. B 88, 085117 (2013)
 in any publication using these pseudopotentials.

    <PP_INPUTFILE>
# ATOM AND REFERENCE CONFIGURATION
# atsym  z   nc   nv     iexc    psfile
  F  9.00    1    2       3      upf
#
#   n    l    f        energy (Ha)
    1    0    2.00
    2    0    2.00
    2    1    5.00
#
# PSEUDOPOTENTIAL AND OPTIMIZATION
# lmax
    1
#
#   l,   rc,      ep,       ncon, nbas, qcut
    0   1.58478  -1.08950    5    8   8.73495
    1   1.66223  -0.41507    5    8   8.69707
#
# LOCAL POTENTIAL
# lloc, lpopt,  rc(5),   dvloc0
    4    5   0.97178      0.00000
#
# VANDERBILT-KLEINMAN-BYLANDER PROJECTORs
# l, nproj, debl
    0    2   1.51125
    1    2   1.53167
#
# MODEL CORE CHARGE
# icmod, fcfact, rcfact
    0   0.00000   0.00000
#
# LOG DERIVATIVE ANALYSIS
# epsh1, epsh2, depsh
   -5.00    3.00    0.02
#
# OUTPUT GRID
# rlmax, drl
    6.00    0.01
#
# TEST CONFIGURATIONS
# ncnf
    0
# nvcnf
#   n    l    f
    </PP_INPUTFILE>
  </PP_INFO>
  <!--                               -->
  <!-- END OF HUMAN READABLE SECTION -->
  <!--                               -->
    <PP_HEADER
       generated="Generated using ONCVPSP code by D. R. Hamann"
       author="anonymous"
       date="210904"
       comment=""
       element="F "
       pseudo_type="NC"
       relativistic="scalar"
       is_ultrasoft="F"
       is_paw="F"
       is_coulomb="F"
       has_so="F"
       has_wfc="F"
       has_gipaw="F"
       core_correction="F"
       functional="PZ"
       z_valence="    7.00"
       total_psenergy="  -4.73162676979E+01"
       rho_cutoff="   8.23000000000E+00"
       l_max="1"
       l_local="-1"
       mesh_size="   824"
       number_of_wfc="2"
       number_of_proj="4"/>
 <PP_MESH>
   <PP_R type="real"  size=" 824" columns="8">
    0.0000    0.0100    0.0200    0.0300    0.0400    0.0500    0.0600    0.0700
    0.0800    0.0900    0.1000    0.1100    0.1200    0.1300    0.1400    0.1500
    0.1600    0.1700    0.1800    0.1900    0.2000    0.2100    0.2200    0.2300
    0.2400    0.2500    0.2600    0.2700    0.2800    0.2900    0.3000    0.3100
    0.3200    0.3300    0.3400    0.3500    0.3600    0.3700    0.3800    0.3900
    0.4000    0.4100    0.4200    0.4300    0.4400    0.4500    0.4600    0.4700
    0.4800    0.4900    0.5000    0.5100    0.5200    0.5300    0.5400    0.5500
    0.5600    0.5700    0.5800    0.5900    0.6000    0.6100    0.6200    0.6300
    0.6400    0.6500    0.6600    0.6700    0.6800    0.6900    0.7000    0.7100
    0.7200    0.7300    0.7400    0.7500    0.7600    0.7700    0.7800    0.7900
    0.8000    0.8100    0.8200    0.8300    0.8400    0.8500    0.8600    0.8700
    0.8800    0.8900    0.9000    0.9100    0.9200    0.9300    0.9400    0.9500
    0.9600    0.9700    0.9800    0.9900    1.0000    1.0100    1.0200    1.0300
    1.0400    1.0500    1.0600    1.0700    1.0800    1.0900    1.1000    1.1100
    1.1200    1.1300    1.1400    1.1500    1.1600    1.1700    1.1800    1.1900
    1.2000    1.2100    1.2200    1.2300    1.2400    1.2500    1.2600    1.2700
    1.2800    1.2900    1.3000    1.3100    1.3200    1.3300    1.3400    1.3500
    1.3600    1.3700    1.3800    1.3900    1.4000    1.4100    1.4200    1.4300
    1.4400    1.4500    1.4600    1.4700    1.4800    1.4900    1.5000    1.5100
    1.5200    1.5300    1.5400    1.5500    1.5600    1.5700    1.5800    1.5900
    1.6000    1.6100    1.6200    1.6300    1.6400    1.6500    1.6600    1.6700
    1.6800    1.6900    1.7000    1.7100    1.7200    1.7300    1.7400    1.7500
    1.7600    1.7700    1.7800    1.7900    1.8000    1.8100    1.8200    1.8300
    1.8400    1.8500    1.8600    1.8700    1.8800    1.8900    1.9000    1.9100
    1.9200    1.9300    1.9400    1.9500    1.9600    1.9700    1.9800    1.9900
    2.0000    2.0100    2.0200    2.0300    2.0400    2.0500    2.0600    2.0700
    2.0800    2.0900    2.1000    2.1100    2.1200    2.1300    2.1400    2.1500
    2.1600    2.1700    2.1800    2.1900    2.2000    2.2100    2.2200    2.2300
    2.2400    2.2500    2.2600    2.2700    2.2800    2.2900    2.3000    2.3100
    2.3200    2.3300    2.3400    2.3500    2.3600    2.3700    2.3800    2.3900
    2.4000    2.4100    2.4200    2.4300    2.4400    2.4500    2.4600    2.4700
    2.4800    2.4900    2.5000    2.5100    2.5200    2.5300    2.5400    2.5500
    2.5600    2.5700    2.5800    2.5900    2.6000    2.6100    2.6200    2.6300
    2.6400    2.6500    2.6600    2.6700    2.6800    2.6900    2.7000    2.7100
    2.7200    2.7300    2.7400    2.7500    2.7600    2.7700    2.7800    2.7900
    2.8000    2.8100    2.8200    2.8300    2.8400    2.8500    2.8600    2.8700
    2.8800    2.8900    2.9000    2.9100    2.9200    2.9300    2.9400    2.9500
    2.9600    2.9700    2.9800    2.9900    3.0000    3.0100    3.0200    3.0300
    3.0400    3.0500    3.0600    3.0700    3.0800    3.0900    3.1000    3.1100
    3.1200    3.1300    3.1400    3.1500    3.1600    3.1700    3.1800    3.1900
    3.2000    3.2100    3.2200    3.2300    3.2400    3.2500    3.2600    3.2700
    3.2800    3.2900    3.3000    3.3100    3.3200    3.3300    3.3400    3.3500
    3.3600    3.3700    3.3800    3.3900    3.4000    3.4100    3.4200    3.4300
    3.4400    3.4500    3.4600    3.4700    3.4800    3.4900    3.5000    3.5100
    3.5200    3.5300    3.5400    3.5500    3.5600    3.5700    3.5800    3.5900
    3.6000    3.6100    3.6200    3.6300    3.6400    3.6500    3.6600    3.6700
    3.6800    3.6900    3.7000    3.7100    3.7200    3.7300    3.7400    3.7500
    3.7600    3.7700    3.7800    3.7900    3.8000    3.8100    3.8200    3.8300
    3.8400    3.8500    3.8600    3.8700    3.8800    3.8900    3.9000    3.9100
    3.9200    3.9300    3.9400    3.9500    3.9600    3.9700    3.9800    3.9900
    4.0000    4.0100    4.0200    4.0300    4.0400    4.0500    4.0600    4.0700
    4.0800    4.0900    4.1000    4.1100    4.1200    4.1300    4.1400    4.1500
    4.1600    4.1700    4.1800    4.1900    4.2000    4.2100    4.2200    4.2300
    4.2400    4.2500    4.2600    4.2700    4.2800    4.2900    4.3000    4.3100
    4.3200    4.3300    4.3400    4.3500    4.3600    4.3700    4.3800    4.3900
    4.4000    4.4100    4.4200    4.4300    4.4400    4.4500    4.4600    4.4700
    4.4800    4.4900    4.5000    4.5100    4.5200    4.5300    4.5400    4.5500
    4.5600    4.5700    4.5800    4.5900    4.6000    4.6100    4.6200    4.6300
    4.6400    4.6500    4.6600    4.6700    4.6800    4.6900    4.7000    4.7100
    4.7200    4.7300    4.7400    4.7500    4.7600    4.7700    4.7800    4.7900
    4.8000    4.8100    4.8200    4.8300    4.8400    4.8500    4.8600    4.8700
    4.8800    4.8900    4.9000    4.9100    4.9200    4.9300    4.9400    4.9500
    4.9600    4.9700    4.9800    4.9900    5.0000    5.0100    5.0200    5.0300
    5.0400    5.0500    5.0600    5.0700    5.0800    5.0900    5.1000    5.1100
    5.1200    5.1300    5.1400    5.1500    5.1600    5.1700    5.1800    5.1900
    5.2000    5.2100    5.2200    5.2300    5.2400    5.2500    5.2600    5.2700
    5.2800    5.2900    5.3000    5.3100    5.3200    5.3300    5.3400    5.3500
    5.3600    5.3700    5.3800    5.3900    5.4000    5.4100    5.4200    5.4300
    5.4400    5.4500    5.4600    5.4700    5.4800    5.4900    5.5000    5.5100
    5.5200    5.5300    5.5400    5.5500    5.5600    5.5700    5.5800    5.5900
    5.6000    5.6100    5.6200    5.6300    5.6400    5.6500    5.6600    5.6700
    5.6800    5.6900    5.7000    5.7100    5.7200    5.7300    5.7400    5.7500
    5.7600    5.7700    5.7800    5.7900    5.8000    5.8100    5.8200    5.8300
    5.8400    5.8500    5.8600    5.8700    5.8800    5.8900    5.9000    5.9100
    5.9200    5.9300    5.9400    5.9500    5.9600    5.9700    5.9800    5.9900
    6.0000    6.0100    6.0200    6.0300    6.0400    6.0500    6.0600    6.0700
    6.0800    6.0900    6.1000    6.1100    6.1200    6.1300    6.1400    6.1500
    6.1600    6.1700    6.1800    6.1900    6.2000    6.2100    6.2200    6.2300
    6.2400    6.2500    6.2600    6.2700    6.2800    6.2900    6.3000    6.3100
    6.3200    6.3300    6.3400    6.3500    6.3600    6.3700    6.3800    6.3900
    6.4000    6.4100    6.4200    6.4300    6.4400    6.4500    6.4600    6.4700
    6.4800    6.4900    6.5000    6.5100    6.5200    6.5300    6.5400    6.5500
    6.5600    6.5700    6.5800    6.5900    6.6000    6.6100    6.6200    6.6300
    6.6400    6.6500    6.6600    6.6700    6.6800    6.6900    6.7000    6.7100
    6.7200    6.7300    6.7400    6.7500    6.7600    6.7700    6.7800    6.7900
    6.8000    6.8100    6.8200    6.8300    6.8400    6.8500    6.8600    6.8700
    6.8800    6.8900    6.9000    6.9100    6.9200    6.9300    6.9400    6.9500
    6.9600    6.9700    6.9800    6.9900    7.0000    7.0100    7.0200    7.0300
    7.0400    7.0500    7.0600    7.0700    7.0800    7.0900    7.1000    7.1100
    7.1200    7.1300    7.1400    7.1500    7.1600    7.1700    7.1800    7.1900
    7.2000    7.2100    7.2200    7.2300    7.2400    7.2500    7.2600    7.2700
    7.2800    7.2900    7.3000    7.3100    7.3200    7.3300    7.3400    7.3500
    7.3600    7.3700    7.3800    7.3900    7.4000    7.4100    7.4200    7.4300
    7.4400    7.4500    7.4600    7.4700    7.4800    7.4900    7.5000    7.5100
    7.5200    7.5300    7.5400    7.5500    7.5600    7.5700    7.5800    7.5900
    7.6000    7.6100    7.6200    7.6300    7.6400    7.6500    7.6600    7.6700
    7.6800    7.6900    7.7000    7.7100    7.7200    7.7300    7.7400    7.7500
    7.7600    7.7700    7.7800    7.7900    7.8000    7.8100    7.8200    7.8300
    7.8400    7.8500    7.8600    7.8700    7.8800    7.8900    7.9000    7.9100
    7.9200    7.9300    7.9400    7.9500    7.9600    7.9700    7.9800    7.9900
    8.0000    8.0100    8.0200    8.0300    8.0400    8.0500    8.0600    8.0700
    8.0800    8.0900    8.1000    8.1100    8.1200    8.1300    8.1400    8.1500
    8.1600    8.1700    8.1800    8.1900    8.2000    8.2100    8.2200    8.2300
   </PP_R>
   <PP_RAB type="real"  size=" 824" columns="8">
    0.0100    0.0100    0.0100    0.0100    0.0100    0.0100    0.0100    0.0100
    0.0100    0.0100    0.0100    0.0100    0.0100    0.0100    0.0100    0.0100
    0.0100    0.0100    0.0100    0.0100    0.0100    0.0100    0.0100    0.0100
    0.0100    0.0100    0.0100    0.0100    0.0100    0.0100    0.0100    0.0100
    0.0100    0.0100    0.0100    0.0100    0.0100    0.0100    0.0100    0.0100
    0.0100    0.0100    0.0100    0.0100    0.0100    0.0100    0.0100    0.0100
    0.0100    0.0100    0.0100    0.0100    0.0100    0.0100    0.0100    0.0100
    0.0100    0.0100    0.0100    0.0100    0.0100    0.0100    0.0100    0.0100
    0.0100    0.0100    0.0100    0.0100    0.0100    0.0100    0.0100    0.0100
    0.0100    0.0100    0.0100    0.0100    0.0100    0.0100    0.0100    0.0100
    0.0100    0.0100    0.0100    0.0100    0.0100    0.0100    0.0100    0.0100
    0.0100    0.0100    0.0100    0.0100    0.0100    0.0100    0.0100    0.0100
    0.0100    0.0100    0.0100    0.0100    0.0100    0.0100    0.0100    0.0100
    0.0100    0.0100    0.0100    0.0100    0.0100    0.0100    0.0100    0.0100
    0.0100    0.0100    0.0100    0.0100    0.0100    0.0100    0.0100    0.0100
    0.0100    0.0100    0.0100    0.0100    0.0100    0.0100    0.0100    0.0100
    0.0100    0.0100    0.0100    0.0100    0.0100    0.0100    0.0100    0.0100
    0.0100    0.0100    0.0100    0.0100    0.0100    0.0100    0.0100    0.0100
    0.0100    0.0100    0.0100    0.0100    0.0100    0.0100    0.0100    0.0100
    0.0100    0.0100    0.0100    0.0100    0.0100    0.0100    0.0100    0.0100
    0.0100    0.0100    0.0100    0.0100    0.0100    0.0100    0.0100    0.0100
    0.0100    0.0100    0.0100    0.0100    0.0100    0.0100    0.0100    0.0100
    0.0100    0.0100    0.0100    0.0100    0.0100    0.0100    0.0100    0.0100
    0.0100    0.0100    0.0100    0.0100    0.0100    0.0100    0.0100    0.0100
    0.0100    0.0100    0.0100    0.0100    0.0100    0.0100    0.0100    0.0100
    0.0100    0.0100    0.0100    0.0100    0.0100    0.0100    0.0100    0.0100
    0.0100    0.0100    0.0100    0.0100    0.0100    0.0100    0.0100    0.0100
    0.0100    0.0100    0.0100    0.0100    0.0100    0.0100    0.0100    0.0100
    0.0100    0.0100    0.0100    0.0100    0.0100    0.0100    0.0100    0.0100
    0.0100    0.0100    0.0100    0.0100    0.0100    0.0100    0.0100    0.0100
    0.0100    0.0100    0.0100    0.0100    0.0100    0.0100    0.0100    0.0100
    0.0100    0.0100    0.0100    0.0100    0.0100    0.0100    0.0100    0.0100
    0.0100    0.0100    0.0100    0.0100    0.0100    0.0100    0.0100    0.0100
    0.0100    0.0100    0.0100    0.0100    0.0100    0.0100    0.0100    0.0100
    0.0100    0.0100    0.0100    0.0100    0.0100    0.0100    0.0100    0.0100
    0.0100    0.0100    0.0100    0.0100    0.0100    0.0100    0.0100    0.0100
    0.0100    0.0100    0.0100    0.0100    0.0100    0.0100    0.0100    0.0100
    0.0100    0.0100    0.0100    0.0100    0.0100    0.0100    0.0100    0.0100
    0.0100    0.0100    0.0100    0.0100    0.0100    0.0100    0.0100    0.0100
    0.0100    0.0100    0.0100    0.0100    0.0100    0.0100    0.0100    0.0100
    0.0100    0.0100    0.0100    0.0100    0.0100    0.0100    0.0100    0.0100
    0.0100    0.0100    0.0100    0.0100    0.0100    0.0100    0.0100    0.0100
    0.0100    0.0100    0.0100    0.0100    0.0100    0.0100    0.0100    0.0100
    0.0100    0.0100    0.0100    0.0100    0.0100    0.0100    0.0100    0.0100
    0.0100    0.0100    0.0100    0.0100    0.0100    0.0100    0.0100    0.0100
    0.0100    0.0100    0.0100    0.0100    0.0100    0.0100    0.0100    0.0100
    0.0100    0.0100    0.0100    0.0100    0.0100    0.0100    0.0100    0.0100
    0.0100    0.0100    0.0100    0.0100    0.0100    0.0100    0.0100    0.0100
    0.0100    0.0100    0.0100    0.0100    0.0100    0.0100    0.0100    0.0100
    0.0100    0.0100    0.0100    0.0100    0.0100    0.0100    0.0100    0.0100
    0.0100    0.0100    0.0100    0.0100    0.0100    0.0100    0.0100    0.0100
    0.0100    0.0100    0.0100    0.0100    0.0100    0.0100    0.0100    0.0100
    0.0100    0.0100    0.0100    0.0100    0.0100    0.0100    0.0100    0.0100
    0.0100    0.0100    0.0100    0.0100    0.0100    0.0100    0.0100    0.0100
    0.0100    0.0100    0.0100    0.0100    0.0100    0.0100    0.0100    0.0100
    0.0100    0.0100    0.0100    0.0100    0.0100    0.0100    0.0100    0.0100
    0.0100    0.0100    0.0100    0.0100    0.0100    0.0100    0.0100    0.0100
    0.0100    0.0100    0.0100    0.0100    0.0100    0.0100    0.0100    0.0100
    0.0100    0.0100    0.0100    0.0100    0.0100    0.0100    0.0100    0.0100
    0.0100    0.0100    0.0100    0.0100    0.0100    0.0100    0.0100    0.0100
    0.0100    0.0100    0.0100    0.0100    0.0100    0.0100    0.0100    0.0100
    0.0100    0.0100    0.0100    0.0100    0.0100    0.0100    0.0100    0.0100
    0.0100    0.0100    0.0100    0.0100    0.0100    0.0100    0.0100    0.0100
    0.0100    0.0100    0.0100    0.0100    0.0100    0.0100    0.0100    0.0100
    0.0100    0.0100    0.0100    0.0100    0.0100    0.0100    0.0100    0.0100
    0.0100    0.0100    0.0100    0.0100    0.0100    0.0100    0.0100    0.0100
    0.0100    0.0100    0.0100    0.0100    0.0100    0.0100    0.0100    0.0100
    0.0100    0.0100    0.0100    0.0100    0.0100    0.0100    0.0100    0.0100
    0.0100    0.0100    0.0100    0.0100    0.0100    0.0100    0.0100    0.0100
    0.0100    0.0100    0.0100    0.0100    0.0100    0.0100    0.0100    0.0100
    0.0100    0.0100    0.0100    0.0100    0.0100    0.0100    0.0100    0.0100
    0.0100    0.0100    0.0100    0.0100    0.0100    0.0100    0.0100    0.0100
    0.0100    0.0100    0.0100    0.0100    0.0100    0.0100    0.0100    0.0100
    0.0100    0.0100    0.0100    0.0100    0.0100    0.0100    0.0100    0.0100
    0.0100    0.0100    0.0100    0.0100    0.0100    0.0100    0.0100    0.0100
    0.0100    0.0100    0.0100    0.0100    0.0100    0.0100    0.0100    0.0100
    0.0100    0.0100    0.0100    0.0100    0.0100    0.0100    0.0100    0.0100
    0.0100    0.0100    0.0100    0.0100    0.0100    0.0100    0.0100    0.0100
    0.0100    0.0100    0.0100    0.0100    0.0100    0.0100    0.0100    0.0100
    0.0100    0.0100    0.0100    0.0100    0.0100    0.0100    0.0100    0.0100
    0.0100    0.0100    0.0100    0.0100    0.0100    0.0100    0.0100    0.0100
    0.0100    0.0100    0.0100    0.0100    0.0100    0.0100    0.0100    0.0100
    0.0100    0.0100    0.0100    0.0100    0.0100    0.0100    0.0100    0.0100
    0.0100    0.0100    0.0100    0.0100    0.0100    0.0100    0.0100    0.0100
    0.0100    0.0100    0.0100    0.0100    0.0100    0.0100    0.0100    0.0100
    0.0100    0.0100    0.0100    0.0100    0.0100    0.0100    0.0100    0.0100
    0.0100    0.0100    0.0100    0.0100    0.0100    0.0100    0.0100    0.0100
    0.0100    0.0100    0.0100    0.0100    0.0100    0.0100    0.0100    0.0100
    0.0100    0.0100    0.0100    0.0100    0.0100    0.0100    0.0100    0.0100
    0.0100    0.0100    0.0100    0.0100    0.0100    0.0100    0.0100    0.0100
    0.0100    0.0100    0.0100    0.0100    0.0100    0.0100    0.0100    0.0100
    0.0100    0.0100    0.0100    0.0100    0.0100    0.0100    0.0100    0.0100
    0.0100    0.0100    0.0100    0.0100    0.0100    0.0100    0.0100    0.0100
    0.0100    0.0100    0.0100    0.0100    0.0100    0.0100    0.0100    0.0100
    0.0100    0.0100    0.0100    0.0100    0.0100    0.0100    0.0100    0.0100
    0.0100    0.0100    0.0100    0.0100    0.0100    0.0100    0.0100    0.0100
    0.0100    0.0100    0.0100    0.0100    0.0100    0.0100    0.0100    0.0100
    0.0100    0.0100    0.0100    0.0100    0.0100    0.0100    0.0100    0.0100
    0.0100    0.0100    0.0100    0.0100    0.0100    0.0100    0.0100    0.0100
    0.0100    0.0100    0.0100    0.0100    0.0100    0.0100    0.0100    0.0100
    0.0100    0.0100    0.0100    0.0100    0.0100    0.0100    0.0100    0.0100
    0.0100    0.0100    0.0100    0.0100    0.0100    0.0100    0.0100    0.0100
    0.0100    0.0100    0.0100    0.0100    0.0100    0.0100    0.0100    0.0100
   </PP_RAB>
 </PP_MESH>
  <PP_LOCAL type="real"  size=" 824" columns="4">
   -3.0996249983E+01   -3.0992491451E+01   -3.0981228221E+01   -3.0962497125E+01
   -3.0936358252E+01   -3.0902893151E+01   -3.0862202485E+01   -3.0814403314E+01
   -3.0759626168E+01   -3.0698012091E+01   -3.0629709787E+01   -3.0554872981E+01
   -3.0473658086E+01   -3.0386222223E+01   -3.0292721595E+01   -3.0193310238E+01
   -3.0088139099E+01   -2.9977355423E+01   -2.9861102406E+01   -2.9739519062E+01
   -2.9612740273E+01   -2.9480896981E+01   -2.9344116479E+01   -2.9202522782E+01
   -2.9056237048E+01   -2.8905378027E+01   -2.8750062522E+01   -2.8590405855E+01
   -2.8426522314E+01   -2.8258525592E+01   -2.8086529192E+01   -2.7910646815E+01
   -2.7730992707E+01   -2.7547681987E+01   -2.7360830926E+01   -2.7170557208E+01
   -2.6976980149E+01   -2.6780220886E+01   -2.6580402534E+01   -2.6377650310E+01
   -2.6172091633E+01   -2.5963856183E+01   -2.5753075950E+01   -2.5539885233E+01
   -2.5324420639E+01   -2.5106821035E+01   -2.4887227492E+01   -2.4665783200E+01
   -2.4442633364E+01   -2.4217925083E+01   -2.3991807204E+01   -2.3764430168E+01
   -2.3535945835E+01   -2.3306507291E+01   -2.3076268652E+01   -2.2845384842E+01
   -2.2614011372E+01   -2.2382304102E+01   -2.2150418995E+01   -2.1918511864E+01
   -2.1686738110E+01   -2.1455252456E+01   -2.1224208673E+01   -2.0993759305E+01
   -2.0764055385E+01   -2.0535246153E+01   -2.0307478768E+01   -2.0080898022E+01
   -1.9855646048E+01   -1.9631862032E+01   -1.9409681921E+01   -1.9189238134E+01
   -1.8970659272E+01   -1.8754069830E+01   -1.8539589908E+01   -1.8327334927E+01
   -1.8117415342E+01   -1.7909936359E+01   -1.7704997655E+01   -1.7502693096E+01
   -1.7303110459E+01   -1.7106331158E+01   -1.6912429962E+01   -1.6721474727E+01
   -1.6533526119E+01   -1.6348637343E+01   -1.6166853872E+01   -1.5988213174E+01
   -1.5812744442E+01   -1.5640468324E+01   -1.5471396650E+01   -1.5305532158E+01
   -1.5142868228E+01   -1.4983388600E+01   -1.4827067103E+01   -1.4673867374E+01
   -1.4523742587E+01   -1.4376635151E+01   -1.4232476539E+01   -1.4091186633E+01
   -1.3952678844E+01   -1.3816867328E+01   -1.3683670192E+01   -1.3553008706E+01
   -1.3424807313E+01   -1.3298993481E+01   -1.3175497568E+01   -1.3054252698E+01
   -1.2935194645E+01   -1.2818261717E+01   -1.2703394649E+01   -1.2590536502E+01
   -1.2479632565E+01   -1.2370630148E+01   -1.2263480074E+01   -1.2158128743E+01
   -1.2054533813E+01   -1.1952689215E+01   -1.1852498797E+01   -1.1753890852E+01
   -1.1656882099E+01   -1.1561426658E+01   -1.1467478918E+01   -1.1375006806E+01
   -1.1283975462E+01   -1.1194351634E+01   -1.1106103333E+01   -1.1019199668E+01
   -1.0933610811E+01   -1.0849307944E+01   -1.0766263209E+01   -1.0684449660E+01
   -1.0603841209E+01   -1.0524412590E+01   -1.0446139309E+01   -1.0368997606E+01
   -1.0292964414E+01   -1.0218017323E+01   -1.0144134547E+01   -1.0071294887E+01
   -9.9994777040E+00   -9.9286628894E+00   -9.8588308375E+00   -9.7899624217E+00
   -9.7220389718E+00   -9.6550422532E+00   -9.5889544479E+00   -9.5237581374E+00
   -9.4594362875E+00   -9.3959722343E+00   -9.3333496719E+00   -9.2715526413E+00
   -9.2105655212E+00   -9.1503730193E+00   -9.0909601648E+00   -9.0323123025E+00
   -8.9744150865E+00   -8.9172544762E+00   -8.8608167314E+00   -8.8050884087E+00
   -8.7500563583E+00   -8.6957077205E+00   -8.6420299230E+00   -8.5890106772E+00
   -8.5366379751E+00   -8.4849000849E+00   -8.4337855471E+00   -8.3832831696E+00
   -8.3333820228E+00   -8.2840714341E+00   -8.2353409817E+00   -8.1871804880E+00
   -8.1395800119E+00   -8.0925298422E+00   -8.0460204907E+00   -8.0000426858E+00
   -7.9545873668E+00   -7.9096456778E+00   -7.8652089618E+00   -7.8212687553E+00
   -7.7778167830E+00   -7.7348449523E+00   -7.6923453486E+00   -7.6503102303E+00
   -7.6087320240E+00   -7.5676033202E+00   -7.5269168685E+00   -7.4866655740E+00
   -7.4468424923E+00   -7.4074408263E+00   -7.3684539219E+00   -7.3298752643E+00
   -7.2916984745E+00   -7.2539173057E+00   -7.2165256400E+00   -7.1795174847E+00
   -7.1428869698E+00   -7.1066283442E+00   -7.0707359730E+00   -7.0352043348E+00
   -7.0000280184E+00   -6.9652017204E+00   -6.9307202423E+00   -6.8965784882E+00
   -6.8627714621E+00   -6.8292942653E+00   -6.7961420945E+00   -6.7633102389E+00
   -6.7307940787E+00   -6.6985890821E+00   -6.6666908039E+00   -6.6350948830E+00
   -6.6037970408E+00   -6.5727930788E+00   -6.5420788772E+00   -6.5116503927E+00
   -6.4815036570E+00   -6.4516347747E+00   -6.4220399222E+00   -6.3927153456E+00
   -6.3636573593E+00   -6.3348623441E+00   -6.3063267466E+00   -6.2780470766E+00
   -6.2500199065E+00   -6.2222418696E+00   -6.1947096587E+00   -6.1674200250E+00
   -6.1403697766E+00   -6.1135557774E+00   -6.0869749459E+00   -6.0606242538E+00
   -6.0345007251E+00   -6.0086014351E+00   -5.9829235086E+00   -5.9574641199E+00
   -5.9322204908E+00   -5.9071898902E+00   -5.8823696327E+00   -5.8577570780E+00
   -5.8333496299E+00   -5.8091447351E+00   -5.7851398825E+00   -5.7613326025E+00
   -5.7377204658E+00   -5.7143010830E+00   -5.6910721033E+00   -5.6680312140E+00
   -5.6451761400E+00   -5.6225046424E+00   -5.6000145182E+00   -5.5777035997E+00
   -5.5555697534E+00   -5.5336108795E+00   -5.5118249116E+00   -5.4902098152E+00
   -5.4687635882E+00   -5.4474842591E+00   -5.4263698872E+00   -5.4054185619E+00
   -5.3846284018E+00   -5.3639975544E+00   -5.3435241956E+00   -5.3232065287E+00
   -5.3030427847E+00   -5.2830312209E+00   -5.2631701210E+00   -5.2434577944E+00
   -5.2238925757E+00   -5.2044728243E+00   -5.1851969238E+00   -5.1660632817E+00
   -5.1470703291E+00   -5.1282165199E+00   -5.1095003306E+00   -5.0909202599E+00
   -5.0724748282E+00   -5.0541625773E+00   -5.0359820700E+00   -5.0179318897E+00
   -5.0000106399E+00   -4.9822169443E+00   -4.9645494459E+00   -4.9470068067E+00
   -4.9295877080E+00   -4.9122908493E+00   -4.8951149482E+00   -4.8780587405E+00
   -4.8611209793E+00   -4.8443004351E+00   -4.8275958952E+00   -4.8110061638E+00
   -4.7945300612E+00   -4.7781664241E+00   -4.7619141047E+00   -4.7457719712E+00
   -4.7297389066E+00   -4.7138138094E+00   -4.6979955925E+00   -4.6822831835E+00
   -4.6666755245E+00   -4.6511715713E+00   -4.6357702938E+00   -4.6204706753E+00
   -4.6052717127E+00   -4.5901724159E+00   -4.5751718077E+00   -4.5602689237E+00
   -4.5454628122E+00   -4.5307525335E+00   -4.5161371602E+00   -4.5016157769E+00
   -4.4871874798E+00   -4.4728513766E+00   -4.4586065866E+00   -4.4444522400E+00
   -4.4303874783E+00   -4.4164114536E+00   -4.4025233287E+00   -4.3887222771E+00
   -4.3750074824E+00   -4.3613781385E+00   -4.3478334492E+00   -4.3343726282E+00
   -4.3209948991E+00   -4.3076994948E+00   -4.2944856576E+00   -4.2813526393E+00
   -4.2682997007E+00   -4.2553261115E+00   -4.2424311505E+00   -4.2296141049E+00
   -4.2168742706E+00   -4.2042109522E+00   -4.1916234622E+00   -4.1791111218E+00
   -4.1666732597E+00   -4.1543092132E+00   -4.1420183269E+00   -4.1297999534E+00
   -4.1176534530E+00   -4.1055781933E+00   -4.0935735494E+00   -4.0816389036E+00
   -4.0697736455E+00   -4.0579771717E+00   -4.0462488858E+00   -4.0345881984E+00
   -4.0229945266E+00   -4.0114672943E+00   -4.0000059322E+00   -3.9886098772E+00
   -3.9772785726E+00   -3.9660114683E+00   -3.9548080202E+00   -3.9436676902E+00
   -3.9325899465E+00   -3.9215742632E+00   -3.9106201202E+00   -3.8997270033E+00
   -3.8888944038E+00   -3.8781218189E+00   -3.8674087512E+00   -3.8567547088E+00
   -3.8461592053E+00   -3.8356217595E+00   -3.8251418955E+00   -3.8147191426E+00
   -3.8043530353E+00   -3.7940431130E+00   -3.7837889202E+00   -3.7735900061E+00
   -3.7634459251E+00   -3.7533562361E+00   -3.7433205027E+00   -3.7333382934E+00
   -3.7234091811E+00   -3.7135327433E+00   -3.7037085618E+00   -3.6939362232E+00
   -3.6842153180E+00   -3.6745454413E+00   -3.6649261924E+00   -3.6553571747E+00
   -3.6458379957E+00   -3.6363682671E+00   -3.6269476046E+00   -3.6175756278E+00
   -3.6082519602E+00   -3.5989762294E+00   -3.5897480665E+00   -3.5805671066E+00
   -3.5714329884E+00   -3.5623453545E+00   -3.5533038507E+00   -3.5443081268E+00
   -3.5353578359E+00   -3.5264526348E+00   -3.5175921835E+00   -3.5087761456E+00
   -3.5000041880E+00   -3.4912759809E+00   -3.4825911978E+00   -3.4739495155E+00
   -3.4653506139E+00   -3.4567941760E+00   -3.4482798882E+00   -3.4398074397E+00
   -3.4313765229E+00   -3.4229868332E+00   -3.4146380689E+00   -3.4063299313E+00
   -3.3980621245E+00   -3.3898343556E+00   -3.3816463344E+00   -3.3734977737E+00
   -3.3653883888E+00   -3.3573178979E+00   -3.3492860219E+00   -3.3412924843E+00
   -3.3333370112E+00   -3.3254193314E+00   -3.3175391762E+00   -3.3096962795E+00
   -3.3018903777E+00   -3.2941212096E+00   -3.2863885165E+00   -3.2786920423E+00
   -3.2710315329E+00   -3.2634067369E+00   -3.2558174051E+00   -3.2482632908E+00
   -3.2407441492E+00   -3.2332597382E+00   -3.2258098175E+00   -3.2183941495E+00
   -3.2110124983E+00   -3.2036646306E+00   -3.1963503147E+00   -3.1890693216E+00
   -3.1818214239E+00   -3.1746063966E+00   -3.1674240165E+00   -3.1602740626E+00
   -3.1531563158E+00   -3.1460705588E+00   -3.1390165766E+00   -3.1319941559E+00
   -3.1250030854E+00   -3.1180431555E+00   -3.1111141588E+00   -3.1042158893E+00
   -3.0973481432E+00   -3.0905107183E+00   -3.0837034143E+00   -3.0769260325E+00
   -3.0701783762E+00   -3.0634602501E+00   -3.0567714609E+00   -3.0501118168E+00
   -3.0434811277E+00   -3.0368792051E+00   -3.0303058624E+00   -3.0237609143E+00
   -3.0172441773E+00   -3.0107554692E+00   -3.0042946098E+00   -2.9978614200E+00
   -2.9914557225E+00   -2.9850773415E+00   -2.9787261026E+00   -2.9724018328E+00
   -2.9661043609E+00   -2.9598335168E+00   -2.9535891320E+00   -2.9473710394E+00
   -2.9411790733E+00   -2.9350130693E+00   -2.9288728646E+00   -2.9227582975E+00
   -2.9166692078E+00   -2.9106054366E+00   -2.9045668263E+00   -2.8985532206E+00
   -2.8925644646E+00   -2.8866004046E+00   -2.8806608880E+00   -2.8747457637E+00
   -2.8688548818E+00   -2.8629880935E+00   -2.8571452514E+00   -2.8513262090E+00
   -2.8455308213E+00   -2.8397589443E+00   -2.8340104353E+00   -2.8282851527E+00
   -2.8225829558E+00   -2.8169037055E+00   -2.8112472635E+00   -2.8056134926E+00
   -2.8000022568E+00   -2.7944134212E+00   -2.7888468519E+00   -2.7833024161E+00
   -2.7777799821E+00   -2.7722794191E+00   -2.7668005975E+00   -2.7613433887E+00
   -2.7559076650E+00   -2.7504932997E+00   -2.7451001673E+00   -2.7397281431E+00
   -2.7343771033E+00   -2.7290469254E+00   -2.7237374874E+00   -2.7184486687E+00
   -2.7131803493E+00   -2.7079324103E+00   -2.7027047336E+00   -2.6974972021E+00
   -2.6923096997E+00   -2.6871421109E+00   -2.6819943213E+00   -2.6768662174E+00
   -2.6717576864E+00   -2.6666686165E+00   -2.6615988967E+00   -2.6565484169E+00
   -2.6515170677E+00   -2.6465047406E+00   -2.6415113280E+00   -2.6365367231E+00
   -2.6315808196E+00   -2.6266435125E+00   -2.6217246971E+00   -2.6168242699E+00