<UPF version="2.0.1">
  <PP_INFO>

 This pseudopotential file has been produced using the code
 ONCVPSP  (Optimized Norm-Conservinng Vanderbilt PSeudopotential)
 fully-relativistic version 3.3.1 12/12/2017 by D. R. Hamann
 The code is available through a link at URL www.mat-simresearch.com.
 Documentation with the package provides a full discription of the
 input data below.


 While it is not required under the terms of the GNU GPL, it is
 suggested that you cite D. R. Hamann, Phys. Rev. B 88, 085117 (2013)
 in any publication using these pseudopotentials.

    <PP_INPUTFILE>
# ATOM AND REFERENCE CONFIGURATION
# atsym  z   nc   nv     iexc    psfile
  He  2.00    0    1       3      upf
#
#   n    l    f        energy (Ha)
    1    0    2.00
#
# PSEUDOPOTENTIAL AND OPTIMIZATION
# lmax
    0
#
#   l,   rc,     ep,   ncon, nbas, qcut
    0   1.99006  -0.57022    5    8   7.17231
#
# LOCAL POTENTIAL
# lloc, lpopt,  rc(5),   dvloc0
    4    5   0.89489      0.00000
#
# VANDERBILT-KLEINMAN-BYLANDER PROJECTORs
# l, nproj, debl
    0    2   1.34022
#
# MODEL CORE CHARGE
# icmod, fcfact, rcfact
    0   0.00000   0.00000
#
# LOG DERIVATIVE ANALYSIS
# epsh1, epsh2, depsh
   -5.00    3.00    0.02
#
# OUTPUT GRID
# rlmax, drl
    6.00    0.01
#
# TEST CONFIGURATIONS
# ncnf
    0
# nvcnf
#   n    l    f
    </PP_INPUTFILE>
  </PP_INFO>
  <!--                               -->
  <!-- END OF HUMAN READABLE SECTION -->
  <!--                               -->
    <PP_HEADER
       generated="Generated using ONCVPSP code by D. R. Hamann"
       author="anonymous"
       date="210904"
       comment=""
       element="He"
       pseudo_type="NC"
       relativistic="full"
       is_ultrasoft="F"
       is_paw="F"
       is_coulomb="F"
       has_so="T"
       has_wfc="F"
       has_gipaw="F"
       core_correction="F"
       functional="PZ"
       z_valence="    2.00"
       total_psenergy="  -5.47957930660E+00"
       rho_cutoff="   7.31000000000E+00"
       l_max="0"
       l_local="-1"
       mesh_size="   732"
       number_of_wfc="1"
       number_of_proj="2"/>
 <PP_MESH>
   <PP_R type="real"  size=" 732" columns="8">
    0.0000    0.0100    0.0200    0.0300    0.0400    0.0500    0.0600    0.0700
    0.0800    0.0900    0.1000    0.1100    0.1200    0.1300    0.1400    0.1500
    0.1600    0.1700    0.1800    0.1900    0.2000    0.2100    0.2200    0.2300
    0.2400    0.2500    0.2600    0.2700    0.2800    0.2900    0.3000    0.3100
    0.3200    0.3300    0.3400    0.3500    0.3600    0.3700    0.3800    0.3900
    0.4000    0.4100    0.4200    0.4300    0.4400    0.4500    0.4600    0.4700
    0.4800    0.4900    0.5000    0.5100    0.5200    0.5300    0.5400    0.5500
    0.5600    0.5700    0.5800    0.5900    0.6000    0.6100    0.6200    0.6300
    0.6400    0.6500    0.6600    0.6700    0.6800    0.6900    0.7000    0.7100
    0.7200    0.7300    0.7400    0.7500    0.7600    0.7700    0.7800    0.7900
    0.8000    0.8100    0.8200    0.8300    0.8400    0.8500    0.8600    0.8700
    0.8800    0.8900    0.9000    0.9100    0.9200    0.9300    0.9400    0.9500
    0.9600    0.9700    0.9800    0.9900    1.0000    1.0100    1.0200    1.0300
    1.0400    1.0500    1.0600    1.0700    1.0800    1.0900    1.1000    1.1100
    1.1200    1.1300    1.1400    1.1500    1.1600    1.1700    1.1800    1.1900
    1.2000    1.2100    1.2200    1.2300    1.2400    1.2500    1.2600    1.2700
    1.2800    1.2900    1.3000    1.3100    1.3200    1.3300    1.3400    1.3500
    1.3600    1.3700    1.3800    1.3900    1.4000    1.4100    1.4200    1.4300
    1.4400    1.4500    1.4600    1.4700    1.4800    1.4900    1.5000    1.5100
    1.5200    1.5300    1.5400    1.5500    1.5600    1.5700    1.5800    1.5900
    1.6000    1.6100    1.6200    1.6300    1.6400    1.6500    1.6600    1.6700
    1.6800    1.6900    1.7000    1.7100    1.7200    1.7300    1.7400    1.7500
    1.7600    1.7700    1.7800    1.7900    1.8000    1.8100    1.8200    1.8300
    1.8400    1.8500    1.8600    1.8700    1.8800    1.8900    1.9000    1.9100
    1.9200    1.9300    1.9400    1.9500    1.9600    1.9700    1.9800    1.9900
    2.0000    2.0100    2.0200    2.0300    2.0400    2.0500    2.0600    2.0700
    2.0800    2.0900    2.1000    2.1100    2.1200    2.1300    2.1400    2.1500
    2.1600    2.1700    2.1800    2.1900    2.2000    2.2100    2.2200    2.2300
    2.2400    2.2500    2.2600    2.2700    2.2800    2.2900    2.3000    2.3100
    2.3200    2.3300    2.3400    2.3500    2.3600    2.3700    2.3800    2.3900
    2.4000    2.4100    2.4200    2.4300    2.4400    2.4500    2.4600    2.4700
    2.4800    2.4900    2.5000    2.5100    2.5200    2.5300    2.5400    2.5500
    2.5600    2.5700    2.5800    2.5900    2.6000    2.6100    2.6200    2.6300
    2.6400    2.6500    2.6600    2.6700    2.6800    2.6900    2.7000    2.7100
    2.7200    2.7300    2.7400    2.7500    2.7600    2.7700    2.7800    2.7900
    2.8000    2.8100    2.8200    2.8300    2.8400    2.8500    2.8600    2.8700
    2.8800    2.8900    2.9000    2.9100    2.9200    2.9300    2.9400    2.9500
    2.9600    2.9700    2.9800    2.9900    3.0000    3.0100    3.0200    3.0300
    3.0400    3.0500    3.0600    3.0700    3.0800    3.0900    3.1000    3.1100
    3.1200    3.1300    3.1400    3.1500    3.1600    3.1700    3.1800    3.1900
    3.2000    3.2100    3.2200    3.2300    3.2400    3.2500    3.2600    3.2700
    3.2800    3.2900    3.3000    3.3100    3.3200    3.3300    3.3400    3.3500
    3.3600    3.3700    3.3800    3.3900    3.4000    3.4100    3.4200    3.4300
    3.4400    3.4500    3.4600    3.4700    3.4800    3.4900    3.5000    3.5100
    3.5200    3.5300    3.5400    3.5500    3.5600    3.5700    3.5800    3.5900
    3.6000    3.6100    3.6200    3.6300    3.6400    3.6500    3.6600    3.6700
    3.6800    3.6900    3.7000    3.7100    3.7200    3.7300    3.7400    3.7500
    3.7600    3.7700    3.7800    3.7900    3.8000    3.8100    3.8200    3.8300
    3.8400    3.8500    3.8600    3.8700    3.8800    3.8900    3.9000    3.9100
    3.9200    3.9300    3.9400    3.9500    3.9600    3.9700    3.9800    3.9900
    4.0000    4.0100    4.0200    4.0300    4.0400    4.0500    4.0600    4.0700
    4.0800    4.0900    4.1000    4.1100    4.1200    4.1300    4.1400    4.1500
    4.1600    4.1700    4.1800    4.1900    4.2000    4.2100    4.2200    4.2300
    4.2400    4.2500    4.2600    4.2700    4.2800    4.2900    4.3000    4.3100
    4.3200    4.3300    4.3400    4.3500    4.3600    4.3700    4.3800    4.3900
    4.4000    4.4100    4.4200    4.4300    4.4400    4.4500    4.4600    4.4700
    4.4800    4.4900    4.5000    4.5100    4.5200    4.5300    4.5400    4.5500
    4.5600    4.5700    4.5800    4.5900    4.6000    4.6100    4.6200    4.6300
    4.6400    4.6500    4.6600    4.6700    4.6800    4.6900    4.7000    4.7100
    4.7200    4.7300    4.7400    4.7500    4.7600    4.7700    4.7800    4.7900
    4.8000    4.8100    4.8200    4.8300    4.8400    4.8500    4.8600    4.8700
    4.8800    4.8900    4.9000    4.9100    4.9200    4.9300    4.9400    4.9500
    4.9600    4.9700    4.9800    4.9900    5.0000    5.0100    5.0200    5.0300
    5.0400    5.0500    5.0600    5.0700    5.0800    5.0900    5.1000    5.1100
    5.1200    5.1300    5.1400    5.1500    5.1600    5.1700    5.1800    5.1900
    5.2000    5.2100    5.2200    5.2300    5.2400    5.2500    5.2600    5.2700
    5.2800    5.2900    5.3000    5.3100    5.3200    5.3300    5.3400    5.3500
    5.3600    5.3700    5.3800    5.3900    5.4000    5.4100    5.4200    5.4300
    5.4400    5.4500    5.4600    5.4700    5.4800    5.4900    5.5000    5.5100
    5.5200    5.5300    5.5400    5.5500    5.5600    5.5700    5.5800    5.5900
    5.6000    5.6100    5.6200    5.6300    5.6400    5.6500    5.6600    5.6700
    5.6800    5.6900    5.7000    5.7100    5.7200    5.7300    5.7400    5.7500
    5.7600    5.7700    5.7800    5.7900    5.8000    5.8100    5.8200    5.8300
    5.8400    5.8500    5.8600    5.8700    5.8800    5.8900    5.9000    5.9100
    5.9200    5.9300    5.9400    5.9500    5.9600    5.9700    5.9800    5.9900
    6.0000    6.0100    6.0200    6.0300    6.0400    6.0500    6.0600    6.0700
    6.0800    6.0900    6.1000    6.1100    6.1200    6.1300    6.1400    6.1500
    6.1600    6.1700    6.1800    6.1900    6.2000    6.2100    6.2200    6.2300
    6.2400    6.2500    6.2600    6.2700    6.2800    6.2900    6.3000    6.3100
    6.3200    6.3300    6.3400    6.3500    6.3600    6.3700    6.3800    6.3900
    6.4000    6.4100    6.4200    6.4300    6.4400    6.4500    6.4600    6.4700
    6.4800    6.4900    6.5000    6.5100    6.5200    6.5300    6.5400    6.5500
    6.5600    6.5700    6.5800    6.5900    6.6000    6.6100    6.6200    6.6300
    6.6400    6.6500    6.6600    6.6700    6.6800    6.6900    6.7000    6.7100
    6.7200    6.7300    6.7400    6.7500    6.7600    6.7700    6.7800    6.7900
    6.8000    6.8100    6.8200    6.8300    6.8400    6.8500    6.8600    6.8700
    6.8800    6.8900    6.9000    6.9100    6.9200    6.9300    6.9400    6.9500
    6.9600    6.9700    6.9800    6.9900    7.0000    7.0100    7.0200    7.0300
    7.0400    7.0500    7.0600    7.0700    7.0800    7.0900    7.1000    7.1100
    7.1200    7.1300    7.1400    7.1500    7.1600    7.1700    7.1800    7.1900
    7.2000    7.2100    7.2200    7.2300    7.2400    7.2500    7.2600    7.2700
    7.2800    7.2900    7.3000    7.3100
   </PP_R>
   <PP_RAB type="real"  size=" 732" columns="8">
    0.0100    0.0100    0.0100    0.0100    0.0100    0.0100    0.0100    0.0100
    0.0100    0.0100    0.0100    0.0100    0.0100    0.0100    0.0100    0.0100
    0.0100    0.0100    0.0100    0.0100    0.0100    0.0100    0.0100    0.0100
    0.0100    0.0100    0.0100    0.0100    0.0100    0.0100    0.0100    0.0100
    0.0100    0.0100    0.0100    0.0100    0.0100    0.0100    0.0100    0.0100
    0.0100    0.0100    0.0100    0.0100    0.0100    0.0100    0.0100    0.0100
    0.0100    0.0100    0.0100    0.0100    0.0100    0.0100    0.0100    0.0100
    0.0100    0.0100    0.0100    0.0100    0.0100    0.0100    0.0100    0.0100
    0.0100    0.0100    0.0100    0.0100    0.0100    0.0100    0.0100    0.0100
    0.0100    0.0100    0.0100    0.0100    0.0100    0.0100    0.0100    0.0100
    0.0100    0.0100    0.0100    0.0100    0.0100    0.0100    0.0100    0.0100
    0.0100    0.0100    0.0100    0.0100    0.0100    0.0100    0.0100    0.0100
    0.0100    0.0100    0.0100    0.0100    0.0100    0.0100    0.0100    0.0100
    0.0100    0.0100    0.0100    0.0100    0.0100    0.0100    0.0100    0.0100
    0.0100    0.0100    0.0100    0.0100    0.0100    0.0100    0.0100    0.0100
    0.0100    0.0100    0.0100    0.0100    0.0100    0.0100    0.0100    0.0100
    0.0100    0.0100    0.0100    0.0100    0.0100    0.0100    0.0100    0.0100
    0.0100    0.0100    0.0100    0.0100    0.0100    0.0100    0.0100    0.0100
    0.0100    0.0100    0.0100    0.0100    0.0100    0.0100    0.0100    0.0100
    0.0100    0.0100    0.0100    0.0100    0.0100    0.0100    0.0100    0.0100
    0.0100    0.0100    0.0100    0.0100    0.0100    0.0100    0.0100    0.0100
    0.0100    0.0100    0.0100    0.0100    0.0100    0.0100    0.0100    0.0100
    0.0100    0.0100    0.0100    0.0100    0.0100    0.0100    0.0100    0.0100
    0.0100    0.0100    0.0100    0.0100    0.0100    0.0100    0.0100    0.0100
    0.0100    0.0100    0.0100    0.0100    0.0100    0.0100    0.0100    0.0100
    0.0100    0.0100    0.0100    0.0100    0.0100    0.0100    0.0100    0.0100
    0.0100    0.0100    0.0100    0.0100    0.0100    0.0100    0.0100    0.0100
    0.0100    0.0100    0.0100    0.0100    0.0100    0.0100    0.0100    0.0100
    0.0100    0.0100    0.0100    0.0100    0.0100    0.0100    0.0100    0.0100
    0.0100    0.0100    0.0100    0.0100    0.0100    0.0100    0.0100    0.0100
    0.0100    0.0100    0.0100    0.0100    0.0100    0.0100    0.0100    0.0100
    0.0100    0.0100    0.0100    0.0100    0.0100    0.0100    0.0100    0.0100
    0.0100    0.0100    0.0100    0.0100    0.0100    0.0100    0.0100    0.0100
    0.0100    0.0100    0.0100    0.0100    0.0100    0.0100    0.0100    0.0100
    0.0100    0.0100    0.0100    0.0100    0.0100    0.0100    0.0100    0.0100
    0.0100    0.0100    0.0100    0.0100    0.0100    0.0100    0.0100    0.0100
    0.0100    0.0100    0.0100    0.0100    0.0100    0.0100    0.0100    0.0100
    0.0100    0.0100    0.0100    0.0100    0.0100    0.0100    0.0100    0.0100
    0.0100    0.0100    0.0100    0.0100    0.0100    0.0100    0.0100    0.0100
    0.0100    0.0100    0.0100    0.0100    0.0100    0.0100    0.0100    0.0100
    0.0100    0.0100    0.0100    0.0100    0.0100    0.0100    0.0100    0.0100
    0.0100    0.0100    0.0100    0.0100    0.0100    0.0100    0.0100    0.0100
    0.0100    0.0100    0.0100    0.0100    0.0100    0.0100    0.0100    0.0100
    0.0100    0.0100    0.0100    0.0100    0.0100    0.0100    0.0100    0.0100
    0.0100    0.0100    0.0100    0.0100    0.0100    0.0100    0.0100    0.0100
    0.0100    0.0100    0.0100    0.0100    0.0100    0.0100    0.0100    0.0100
    0.0100    0.0100    0.0100    0.0100    0.0100    0.0100    0.0100    0.0100
    0.0100    0.0100    0.0100    0.0100    0.0100    0.0100    0.0100    0.0100
    0.0100    0.0100    0.0100    0.0100    0.0100    0.0100    0.0100    0.0100
    0.0100    0.0100    0.0100    0.0100    0.0100    0.0100    0.0100    0.0100
    0.0100    0.0100    0.0100    0.0100    0.0100    0.0100    0.0100    0.0100
    0.0100    0.0100    0.0100    0.0100    0.0100    0.0100    0.0100    0.0100
    0.0100    0.0100    0.0100    0.0100    0.0100    0.0100    0.0100    0.0100
    0.0100    0.0100    0.0100    0.0100    0.0100    0.0100    0.0100    0.0100
    0.0100    0.0100    0.0100    0.0100    0.0100    0.0100    0.0100    0.0100
    0.0100    0.0100    0.0100    0.0100    0.0100    0.0100    0.0100    0.0100
    0.0100    0.0100    0.0100    0.0100    0.0100    0.0100    0.0100    0.0100
    0.0100    0.0100    0.0100    0.0100    0.0100    0.0100    0.0100    0.0100
    0.0100    0.0100    0.0100    0.0100    0.0100    0.0100    0.0100    0.0100
    0.0100    0.0100    0.0100    0.0100    0.0100    0.0100    0.0100    0.0100
    0.0100    0.0100    0.0100    0.0100    0.0100    0.0100    0.0100    0.0100
    0.0100    0.0100    0.0100    0.0100    0.0100    0.0100    0.0100    0.0100
    0.0100    0.0100    0.0100    0.0100    0.0100    0.0100    0.0100    0.0100
    0.0100    0.0100    0.0100    0.0100    0.0100    0.0100    0.0100    0.0100
    0.0100    0.0100    0.0100    0.0100    0.0100    0.0100    0.0100    0.0100
    0.0100    0.0100    0.0100    0.0100    0.0100    0.0100    0.0100    0.0100
    0.0100    0.0100    0.0100    0.0100    0.0100    0.0100    0.0100    0.0100
    0.0100    0.0100    0.0100    0.0100    0.0100    0.0100    0.0100    0.0100
    0.0100    0.0100    0.0100    0.0100    0.0100    0.0100    0.0100    0.0100
    0.0100    0.0100    0.0100    0.0100    0.0100    0.0100    0.0100    0.0100
    0.0100    0.0100    0.0100    0.0100    0.0100    0.0100    0.0100    0.0100
    0.0100    0.0100    0.0100    0.0100    0.0100    0.0100    0.0100    0.0100
    0.0100    0.0100    0.0100    0.0100    0.0100    0.0100    0.0100    0.0100
    0.0100    0.0100    0.0100    0.0100    0.0100    0.0100    0.0100    0.0100
    0.0100    0.0100    0.0100    0.0100    0.0100    0.0100    0.0100    0.0100
    0.0100    0.0100    0.0100    0.0100    0.0100    0.0100    0.0100    0.0100
    0.0100    0.0100    0.0100    0.0100    0.0100    0.0100    0.0100    0.0100
    0.0100    0.0100    0.0100    0.0100    0.0100    0.0100    0.0100    0.0100
    0.0100    0.0100    0.0100    0.0100    0.0100    0.0100    0.0100    0.0100
    0.0100    0.0100    0.0100    0.0100    0.0100    0.0100    0.0100    0.0100
    0.0100    0.0100    0.0100    0.0100    0.0100    0.0100    0.0100    0.0100
    0.0100    0.0100    0.0100    0.0100    0.0100    0.0100    0.0100    0.0100
    0.0100    0.0100    0.0100    0.0100    0.0100    0.0100    0.0100    0.0100
    0.0100    0.0100    0.0100    0.0100    0.0100    0.0100    0.0100    0.0100
    0.0100    0.0100    0.0100    0.0100    0.0100    0.0100    0.0100    0.0100
    0.0100    0.0100    0.0100    0.0100    0.0100    0.0100    0.0100    0.0100
    0.0100    0.0100    0.0100    0.0100    0.0100    0.0100    0.0100    0.0100
    0.0100    0.0100    0.0100    0.0100    0.0100    0.0100    0.0100    0.0100
    0.0100    0.0100    0.0100    0.0100    0.0100    0.0100    0.0100    0.0100
    0.0100    0.0100    0.0100    0.0100    0.0100    0.0100    0.0100    0.0100
    0.0100    0.0100    0.0100    0.0100    0.0100    0.0100    0.0100    0.0100
    0.0100    0.0100    0.0100    0.0100
   </PP_RAB>
 </PP_MESH>
  <PP_LOCAL type="real"  size=" 732" columns="4">
   -9.5979242535E+00   -9.5966915447E+00   -9.5929946309E+00   -9.5868371392E+00
   -9.5782251100E+00   -9.5671669900E+00   -9.5536736220E+00   -9.5377582314E+00
   -9.5194364108E+00   -9.4987261011E+00   -9.4756475695E+00   -9.4502233859E+00
   -9.4224783953E+00   -9.3924396877E+00   -9.3601365665E+00   -9.3256005124E+00
   -9.2888651461E+00   -9.2499661880E+00   -9.2089414151E+00   -9.1658306161E+00
   -9.1206755436E+00   -9.0735198637E+00   -9.0244091044E+00   -8.9733906005E+00
   -8.9205134370E+00   -8.8658283906E+00   -8.8093878683E+00   -8.7512458449E+00
   -8.6914577980E+00   -8.6300806414E+00   -8.5671726566E+00   -8.5027934225E+00
   -8.4370037431E+00   -8.3698655747E+00   -8.3014419498E+00   -8.2317969010E+00
   -8.1609953824E+00   -8.0891031901E+00   -8.0161868813E+00   -7.9423136917E+00
   -7.8675514519E+00   -7.7919685026E+00   -7.7156336083E+00   -7.6386158703E+00
   -7.5609846380E+00   -7.4828094193E+00   -7.4041597904E+00   -7.3251053036E+00
   -7.2457153950E+00   -7.1660592904E+00   -7.0862059109E+00   -7.0062237773E+00
   -6.9261809128E+00   -6.8461447462E+00   -6.7661820126E+00   -6.6863586542E+00
   -6.6067397197E+00   -6.5273892629E+00   -6.4483702403E+00   -6.3697444074E+00
   -6.2915722146E+00   -6.2139127018E+00   -6.1368233919E+00   -6.0603601831E+00
   -5.9845772410E+00   -5.9095268886E+00   -5.8352594959E+00   -5.7618233677E+00
   -5.6892646314E+00   -5.6176271222E+00   -5.5469522682E+00   -5.4772789741E+00
   -5.4086435027E+00   -5.3410793568E+00   -5.2746171853E+00   -5.2092839049E+00
   -5.1451098473E+00   -5.0820800008E+00   -5.0201995587E+00   -4.9595522010E+00
   -4.9001197449E+00   -4.8419144795E+00   -4.7849387243E+00   -4.7291916194E+00
   -4.6746680832E+00   -4.6213587312E+00   -4.5692497381E+00   -4.5183226959E+00
   -4.4685544709E+00   -4.4199171001E+00   -4.3723774799E+00   -4.3258990395E+00
   -4.2804452202E+00   -4.2359811558E+00   -4.1924734069E+00   -4.1498899337E+00
   -4.1082000248E+00   -4.0673742322E+00   -4.0273843096E+00   -3.9882031566E+00
   -3.9498047644E+00   -3.9121641662E+00   -3.8752573904E+00   -3.8390614154E+00
   -3.8035541289E+00   -3.7687142877E+00   -3.7345214810E+00   -3.7009560953E+00
   -3.6679992807E+00   -3.6356329196E+00   -3.6038395971E+00   -3.5726025720E+00
   -3.5419057499E+00   -3.5117336576E+00   -3.4820714184E+00   -3.4529047284E+00
   -3.4242198341E+00   -3.3960035109E+00   -3.3682430423E+00   -3.3409262002E+00
   -3.3140412257E+00   -3.2875768107E+00   -3.2615220803E+00   -3.2358665756E+00
   -3.2106002373E+00   -3.1857133898E+00   -3.1611967260E+00   -3.1370412919E+00
   -3.1132384728E+00   -3.0897799790E+00   -3.0666578325E+00   -3.0438643538E+00
   -3.0213921493E+00   -2.9992340992E+00   -2.9773833451E+00   -2.9558332794E+00
   -2.9345775332E+00   -2.9136099662E+00   -2.8929246560E+00   -2.8725158881E+00
   -2.8523781462E+00   -2.8325061025E+00   -2.8128946091E+00   -2.7935386889E+00
   -2.7744335274E+00   -2.7555744645E+00   -2.7369569867E+00   -2.7185767195E+00
   -2.7004294206E+00   -2.6825109729E+00   -2.6648173776E+00   -2.6473447485E+00
   -2.6300893057E+00   -2.6130473700E+00   -2.5962153577E+00   -2.5795897750E+00
   -2.5631672140E+00   -2.5469443473E+00   -2.5309179243E+00   -2.5150847670E+00
   -2.4994417661E+00   -2.4839858778E+00   -2.4687141201E+00   -2.4536235701E+00
   -2.4387113611E+00   -2.4239746798E+00   -2.4094107643E+00   -2.3950169014E+00
   -2.3807904251E+00   -2.3667287143E+00   -2.3528291917E+00   -2.3390893217E+00
   -2.3255066097E+00   -2.3120786005E+00   -2.2988028774E+00   -2.2856770612E+00
   -2.2726988097E+00   -2.2598658166E+00   -2.2471758112E+00   -2.2346265581E+00
   -2.2222158560E+00   -2.2099415384E+00   -2.1978014725E+00   -2.1857935594E+00
   -2.1739157338E+00   -2.1621659639E+00   -2.1505422511E+00   -2.1390426303E+00
   -2.1276651692E+00   -2.1164079691E+00   -2.1052691639E+00   -2.0942469205E+00
   -2.0833394387E+00   -2.0725449509E+00   -2.0618617222E+00   -2.0512880497E+00
   -2.0408222630E+00   -2.0304627233E+00   -2.0202078235E+00   -2.0100559874E+00
   -2.0000056699E+00   -1.9900553560E+00   -1.9802035606E+00   -1.9704488276E+00
   -1.9607897298E+00   -1.9512248675E+00   -1.9417528685E+00   -1.9323723870E+00
   -1.9230821029E+00   -1.9138807216E+00   -1.9047669730E+00   -1.8957396112E+00
   -1.8867974136E+00   -1.8779391808E+00   -1.8691637356E+00   -1.8604699230E+00
   -1.8518566090E+00   -1.8433226808E+00   -1.8348670460E+00   -1.8264886320E+00
   -1.8181863857E+00   -1.8099592733E+00   -1.8018062794E+00   -1.7937264069E+00
   -1.7857186764E+00   -1.7777821261E+00   -1.7699158111E+00   -1.7621188032E+00
   -1.7543901904E+00   -1.7467290767E+00   -1.7391345816E+00   -1.7316058401E+00
   -1.7241420018E+00   -1.7167422311E+00   -1.7094057065E+00   -1.7021316207E+00
   -1.6949191800E+00   -1.6877676040E+00   -1.6806761255E+00   -1.6736439902E+00
   -1.6666704562E+00   -1.6597547941E+00   -1.6528962864E+00   -1.6460942276E+00
   -1.6393479236E+00   -1.6326566917E+00   -1.6260198602E+00   -1.6194367685E+00
   -1.6129067664E+00   -1.6064292142E+00   -1.6000034827E+00   -1.5936289524E+00
   -1.5873050138E+00   -1.5810310670E+00   -1.5748065215E+00   -1.5686307961E+00
   -1.5625033187E+00   -1.5564235262E+00   -1.5503908639E+00   -1.5444047861E+00
   -1.5384647551E+00   -1.5325702418E+00   -1.5267207249E+00   -1.5209156911E+00
   -1.5151546350E+00   -1.5094370587E+00   -1.5037624718E+00   -1.4981303913E+00
   -1.4925403414E+00   -1.4869918533E+00   -1.4814844652E+00   -1.4760177221E+00
   -1.4705911758E+00   -1.4652043845E+00   -1.4598569130E+00   -1.4545483322E+00
   -1.4492782196E+00   -1.4440461583E+00   -1.4388517379E+00   -1.4336945536E+00
   -1.4285742064E+00   -1.4234903030E+00   -1.4184424557E+00   -1.4134302824E+00
   -1.4084534062E+00   -1.4035114554E+00   -1.3986040639E+00   -1.3937308702E+00
   -1.3888915183E+00   -1.3840856567E+00   -1.3793129391E+00   -1.3745730237E+00
   -1.3698655736E+00   -1.3651902563E+00   -1.3605467440E+00   -1.3559347131E+00
   -1.3513538447E+00   -1.3468038239E+00   -1.3422843402E+00   -1.3377950873E+00
   -1.3333357627E+00   -1.3289060683E+00   -1.3245057097E+00   -1.3201343963E+00
   -1.3157918417E+00   -1.3114777628E+00   -1.3071918807E+00   -1.3029339196E+00
   -1.2987036076E+00   -1.2945006764E+00   -1.2903248609E+00   -1.2861758995E+00
   -1.2820535341E+00   -1.2779575097E+00   -1.2738875747E+00   -1.2698434806E+00
   -1.2658249820E+00   -1.2618318368E+00   -1.2578638057E+00   -1.2539206526E+00
   -1.2500021443E+00   -1.2461080503E+00   -1.2422381434E+00   -1.2383921987E+00
   -1.2345699944E+00   -1.2307713115E+00   -1.2269959333E+00   -1.2232436462E+00
   -1.2195142389E+00   -1.2158075028E+00   -1.2121232318E+00   -1.2084612223E+00
   -1.2048212731E+00   -1.2012031855E+00   -1.1976067631E+00   -1.1940318119E+00
   -1.1904781402E+00   -1.1869455586E+00   -1.1834338798E+00   -1.1799429190E+00
   -1.1764724932E+00   -1.1730224218E+00   -1.1695925263E+00   -1.1661826302E+00
   -1.1627925591E+00   -1.1594221407E+00   -1.1560712044E+00   -1.1527395819E+00
   -1.1494271066E+00   -1.1461336141E+00   -1.1428589415E+00   -1.1396029281E+00
   -1.1363654147E+00   -1.1331462442E+00   -1.1299452611E+00   -1.1267623118E+00
   -1.1235972442E+00   -1.1204499081E+00   -1.1173201548E+00   -1.1142078376E+00
   -1.1111128110E+00   -1.1080349314E+00   -1.1049740566E+00   -1.1019300462E+00
   -1.0989027611E+00   -1.0958920640E+00   -1.0928978187E+00   -1.0899198908E+00
   -1.0869581474E+00   -1.0840124567E+00   -1.0810826888E+00   -1.0781687147E+00
   -1.0752704072E+00   -1.0723876402E+00   -1.0695202891E+00   -1.0666682305E+00
   -1.0638313425E+00   -1.0610095042E+00   -1.0582025964E+00   -1.0554105007E+00
   -1.0526331003E+00   -1.0498702795E+00   -1.0471219236E+00   -1.0443879195E+00
   -1.0416681550E+00   -1.0389625192E+00   -1.0362709022E+00   -1.0335931954E+00
   -1.0309292912E+00   -1.0282790832E+00   -1.0256424660E+00   -1.0230193353E+00
   -1.0204095880E+00   -1.0178131218E+00   -1.0152298357E+00   -1.0126596295E+00
   -1.0101024042E+00   -1.0075580616E+00   -1.0050265046E+00   -1.0025076372E+00
   -1.0000013641E+00   -9.9750759117E-01   -9.9502622504E-01   -9.9255717339E-01
   -9.9010034478E-01   -9.8765564866E-01   -9.8522299538E-01   -9.8280229618E-01
   -9.8039346316E-01   -9.7799640928E-01   -9.7561104835E-01   -9.7323729502E-01
   -9.7087506477E-01   -9.6852427390E-01   -9.6618483952E-01   -9.6385667952E-01
   -9.6153971260E-01   -9.5923385824E-01   -9.5693903668E-01   -9.5465516893E-01
   -9.5238217675E-01   -9.5011998263E-01   -9.4786850982E-01   -9.4562768227E-01
   -9.4339742468E-01   -9.4117766241E-01   -9.3896832157E-01   -9.3676932894E-01
   -9.3458061198E-01   -9.3240209883E-01   -9.3023371830E-01   -9.2807539987E-01
   -9.2592707367E-01   -9.2378867045E-01   -9.2166012163E-01   -9.1954135924E-01
   -9.1743231595E-01   -9.1533292505E-01   -9.1324312040E-01   -9.1116283651E-01
   -9.0909200846E-01   -9.0703057193E-01   -9.0497846317E-01   -9.0293561901E-01
   -9.0090197686E-01   -8.9887747467E-01   -8.9686205098E-01   -8.9485564485E-01
   -8.9285819589E-01   -8.9086964426E-01   -8.8888993064E-01   -8.8691899625E-01
   -8.8495678281E-01   -8.8300323256E-01   -8.8105828827E-01   -8.7912189319E-01
   -8.7719399108E-01   -8.7527452618E-01   -8.7336344322E-01   -8.7146068743E-01
   -8.6956620450E-01   -8.6767994058E-01   -8.6580184232E-01   -8.6393185679E-01
   -8.6206993156E-01   -8.6021601460E-01   -8.5837005438E-01   -8.5653199977E-01
   -8.5470180011E-01   -8.5287940513E-01   -8.5106476504E-01   -8.4925783042E-01
   -8.4745855232E-01   -8.4566688216E-01   -8.4388277179E-01   -8.4210617347E-01
   -8.4033703986E-01   -8.3857532400E-01   -8.3682097934E-01   -8.3507395972E-01
   -8.3333421935E-01   -8.3160171284E-01   -8.2987639515E-01   -8.2815822164E-01
   -8.2644714802E-01   -8.2474313039E-01   -8.2304612517E-01   -8.2135608918E-01
   -8.1967297958E-01   -8.1799675386E-01   -8.1632736988E-01   -8.1466478585E-01
   -8.1300896029E-01   -8.1135985208E-01   -8.0971742043E-01   -8.0808162487E-01
   -8.0645242526E-01   -8.0482978180E-01   -8.0321365498E-01   -8.0160400563E-01
   -8.0000079488E-01   -7.9840398418E-01   -7.9681353528E-01   -7.9522941023E-01
   -7.9365157140E-01   -7.9207998145E-01   -7.9051460331E-01   -7.8895540025E-01
   -7.8740233578E-01   -7.8585537373E-01   -7.8431447821E-01   -7.8277961359E-01
   -7.8125074454E-01   -7.7972783601E-01   -7.7821085319E-01   -7.7669976157E-01
   -7.7519452690E-01   -7.7369511519E-01   -7.7220149273E-01   -7.7071362604E-01
   -7.6923148192E-01   -7.6775502741E-01   -7.6628422983E-01   -7.6481905672E-01
   -7.6335947587E-01   -7.6190545534E-01   -7.6045696341E-01   -7.5901396861E-01
   -7.5757643970E-01   -7.5614434569E-01   -7.5471765581E-01   -7.5329633954E-01
   -7.5188036656E-01   -7.5046970681E-01   -7.4906433044E-01   -7.4766420781E-01
   -7.4626930953E-01   -7.4487960641E-01   -7.4349506947E-01   -7.4211566997E-01
   -7.4074137936E-01   -7.3937216931E-01   -7.3800801170E-01   -7.3664887862E-01
   -7.3529474236E-01   -7.3394557541E-01   -7.3260135047E-01   -7.3126204044E-01
   -7.2992761840E-01   -7.2859805765E-01   -7.2727333168E-01   -7.2595341415E-01
   -7.2463827894E-01   -7.2332790010E-01   -7.2202225187E-01   -7.2072130869E-01
   -7.1942504517E-01   -7.1813343610E-01   -7.1684645646E-01   -7.1556408140E-01
   -7.1428628626E-01   -7.1301304654E-01   -7.1174433793E-01   -7.1048013629E-01
   -7.0922041764E-01   -7.0796515817E-01   -7.0671433425E-01   -7.0546792242E-01
   -7.0422589937E-01   -7.0298824196E-01   -7.0175492721E-01   -7.0052593231E-01
   -6.9930123460E-01   -6.9808081158E-01   -6.9686464091E-01   -6.9565270041E-01
   -6.9444496804E-01   -6.9324142193E-01   -6.9204204034E-01   -6.9084680170E-01
   -6.8965568457E-01   -6.8846866769E-01   -6.8728572990E-01   -6.8610685023E-01
   -6.8493200782E-01   -6.8376118197E-01   -6.8259435212E-01   -6.8143149785E-01
   -6.8027259887E-01   -6.7911763504E-01   -6.7796658635E-01   -6.7681943292E-01
   -6.7567615501E-01   -6.7453673302E-01   -6.7340114748E-01   -6.7226937904E-01
   -6.7114140848E-01   -6.7001721673E-01   -6.6889678482E-01   -6.6778009392E-01
   -6.6666712534E-01   -6.6555786048E-01   -6.6445228090E-01   -6.6335036825E-01
   -6.6225210432E-01   -6.6115747103E-01   -6.6006645039E-01   -6.5897902456E-01
   -6.5789517579E-01   -6.5681488647E-01   -6.5573813908E-01   -6.5466491624E-01
   -6.5359520068E-01   -6.5252897521E-01   -6.5146622281E-01   -6.5040692651E-01
   -6.4935106950E-01   -6.4829863504E-01   -6.4724960653E-01   -6.4620396745E-01
   -6.4516170141E-01   -6.4412279210E-01   -6.4308722335E-01   -6.4205497907E-01
   -6.4102604327E-01   -6.4000040007E-01   -6.3897803369E-01   -6.3795892845E-01
   -6.3694306878E-01   -6.3593043919E-01   -6.3492102431E-01   -6.3391480885E-01
   -6.3291177762E-01   -6.3191191553E-01   -6.3091520759E-01   -6.2992163890E-01